 Entering Link 1 = C:\G16W\l1.exe PID=      6668.
  
 Copyright (c) 1988-2019, Gaussian, Inc.  All Rights Reserved.
  
 This is part of the Gaussian(R) 16 program.  It is based on
 the Gaussian(R) 09 system (copyright 2009, Gaussian, Inc.),
 the Gaussian(R) 03 system (copyright 2003, Gaussian, Inc.),
 the Gaussian(R) 98 system (copyright 1998, Gaussian, Inc.),
 the Gaussian(R) 94 system (copyright 1995, Gaussian, Inc.),
 the Gaussian 92(TM) system (copyright 1992, Gaussian, Inc.),
 the Gaussian 90(TM) system (copyright 1990, Gaussian, Inc.),
 the Gaussian 88(TM) system (copyright 1988, Gaussian, Inc.),
 the Gaussian 86(TM) system (copyright 1986, Carnegie Mellon
 University), and the Gaussian 82(TM) system (copyright 1983,
 Carnegie Mellon University). Gaussian is a federally registered
 trademark of Gaussian, Inc.
  
 This software contains proprietary and confidential information,
 including trade secrets, belonging to Gaussian, Inc.
  
 This software is provided under written license and may be
 used, copied, transmitted, or stored only in accord with that
 written license.
  
 The following legend is applicable only to US Government
 contracts under FAR:
  
                    RESTRICTED RIGHTS LEGEND
  
 Use, reproduction and disclosure by the US Government is
 subject to restrictions as set forth in subparagraphs (a)
 and (c) of the Commercial Computer Software - Restricted
 Rights clause in FAR 52.227-19.
  
 Gaussian, Inc.
 340 Quinnipiac St., Bldg. 40, Wallingford CT 06492
  
  
 ---------------------------------------------------------------
 Warning -- This program may not be used in any manner that
 competes with the business of Gaussian, Inc. or will provide
 assistance to any competitor of Gaussian, Inc.  The licensee
 of this program is prohibited from giving any competitor of
 Gaussian, Inc. access to this program.  By using this program,
 the user acknowledges that Gaussian, Inc. is engaged in the
 business of creating and licensing software in the field of
 computational chemistry and represents and warrants to the
 licensee that it is not a competitor of Gaussian, Inc. and that
 it will not use this program in any manner prohibited above.
 ---------------------------------------------------------------
  

 Cite this work as:
 Gaussian 16, Revision C.01,
 M. J. Frisch, G. W. Trucks, H. B. Schlegel, G. E. Scuseria, 
 M. A. Robb, J. R. Cheeseman, G. Scalmani, V. Barone, 
 G. A. Petersson, H. Nakatsuji, X. Li, M. Caricato, A. V. Marenich, 
 J. Bloino, B. G. Janesko, R. Gomperts, B. Mennucci, H. P. Hratchian, 
 J. V. Ortiz, A. F. Izmaylov, J. L. Sonnenberg, D. Williams-Young, 
 F. Ding, F. Lipparini, F. Egidi, J. Goings, B. Peng, A. Petrone, 
 T. Henderson, D. Ranasinghe, V. G. Zakrzewski, J. Gao, N. Rega, 
 G. Zheng, W. Liang, M. Hada, M. Ehara, K. Toyota, R. Fukuda, 
 J. Hasegawa, M. Ishida, T. Nakajima, Y. Honda, O. Kitao, H. Nakai, 
 T. Vreven, K. Throssell, J. A. Montgomery, Jr., J. E. Peralta, 
 F. Ogliaro, M. J. Bearpark, J. J. Heyd, E. N. Brothers, K. N. Kudin, 
 V. N. Staroverov, T. A. Keith, R. Kobayashi, J. Normand, 
 K. Raghavachari, A. P. Rendell, J. C. Burant, S. S. Iyengar, 
 J. Tomasi, M. Cossi, J. M. Millam, M. Klene, C. Adamo, R. Cammi, 
 J. W. Ochterski, R. L. Martin, K. Morokuma, O. Farkas, 
 J. B. Foresman, and D. J. Fox, Gaussian, Inc., Wallingford CT, 2019.
 
 ******************************************
 Gaussian 16:  EM64W-G16RevC.01 30-May-2019
                01-Dec-2022 
 ******************************************
 %chk=C:\Users\chemistry\Documents\Gruppe H\inputCC_ÜZ.chk
 ---------------------------------------------------
 # opt=(calcfc,ts) freq hf/cc-pvdz geom=connectivity
 ---------------------------------------------------
 1/5=1,10=4,18=20,38=1,57=2/1,3;
 2/9=110,12=2,17=6,18=5,40=1/2;
 3/5=16,11=9,25=1,30=1,71=2,140=1/1,2,3;
 4//1;
 5/5=2,38=5/2;
 8/6=4,10=90,11=11/1;
 11/6=1,8=1,9=11,15=111,16=1/1,2,10;
 10/6=1,13=1/2;
 6/7=2,8=2,9=2,10=2,28=1/1;
 7/10=1,25=1/1,2,3,16;
 1/5=1,10=4,18=20/3(2);
 2/9=110/2;
 99//99;
 2/9=110/2;
 3/5=16,11=9,25=1,30=1,71=1/1,2,3;
 4/5=5,16=3,69=1/1;
 5/5=2,38=5/2;
 7//1,2,3,16;
 1/5=1,18=20/3(-5);
 2/9=110/2;
 6/7=2,8=2,9=2,10=2,19=2,28=1/1;
 99/9=1/99;
 -------------------
 Title Card Required
 -------------------
 Symbolic Z-matrix:
 Charge = -1 Multiplicity = 1
 C                     0.80101   0.0003    0.00044 
 H                     0.76674  -0.72776   0.78325 
 H                     0.76594  -0.31406  -1.02136 
 H                     0.76641   1.04229   0.23913 
 Br                   -1.71092  -0.00003  -0.00005 
 Cl                    3.10453  -0.00007  -0.00012 
 
 Add virtual bond connecting atoms Cl6        and C1         Dist= 4.35D+00.
 Add virtual bond connecting atoms Br5        and C1         Dist= 4.75D+00.

 GradGradGradGradGradGradGradGradGradGradGradGradGradGradGradGradGradGrad
 Berny optimization.
 Initialization pass.
                           ----------------------------
                           !    Initial Parameters    !
                           ! (Angstroms and Degrees)  !
 --------------------------                            --------------------------
 ! Name  Definition              Value          Derivative Info.                !
 --------------------------------------------------------------------------------
 ! R1    R(1,2)                  1.0696         calculate D2E/DX2 analytically  !
 ! R2    R(1,3)                  1.0696         calculate D2E/DX2 analytically  !
 ! R3    R(1,4)                  1.0695         calculate D2E/DX2 analytically  !
 ! R4    R(1,5)                  2.5119         calculate D2E/DX2 analytically  !
 ! R5    R(1,6)                  2.3035         calculate D2E/DX2 analytically  !
 ! A1    A(2,1,3)              119.8707         calculate D2E/DX2 analytically  !
 ! A2    A(2,1,4)              119.9195         calculate D2E/DX2 analytically  !
 ! A3    A(2,1,5)               88.1668         calculate D2E/DX2 analytically  !
 ! A4    A(2,1,6)               91.8402         calculate D2E/DX2 analytically  !
 ! A5    A(3,1,4)              119.8976         calculate D2E/DX2 analytically  !
 ! A6    A(3,1,5)               88.1084         calculate D2E/DX2 analytically  !
 ! A7    A(3,1,6)               91.8629         calculate D2E/DX2 analytically  !
 ! A8    A(4,1,5)               88.1559         calculate D2E/DX2 analytically  !
 ! A9    A(4,1,6)               91.8658         calculate D2E/DX2 analytically  !
 ! A10   L(5,1,6,2,-1)         180.0071         calculate D2E/DX2 analytically  !
 ! A11   L(5,1,6,2,-2)         179.9709         calculate D2E/DX2 analytically  !
 ! D1    D(2,1,4,3)           -173.5758         calculate D2E/DX2 analytically  !
 ! D2    D(2,1,5,3)           -119.9754         calculate D2E/DX2 analytically  !
 ! D3    D(2,1,6,3)            119.9742         calculate D2E/DX2 analytically  !
 ! D4    D(2,1,5,4)            120.0217         calculate D2E/DX2 analytically  !
 ! D5    D(2,1,6,4)           -120.0233         calculate D2E/DX2 analytically  !
 ! D6    D(3,1,5,4)           -120.003          calculate D2E/DX2 analytically  !
 ! D7    D(3,1,6,4)            120.0026         calculate D2E/DX2 analytically  !
 --------------------------------------------------------------------------------
 Trust Radius=3.00D-01 FncErr=1.00D-07 GrdErr=1.00D-07 EigMax=2.50D+02 EigMin=1.00D-04
 Number of steps in this run=     33 maximum allowed number of steps=    100.
 Search for a saddle point of order  1.
 GradGradGradGradGradGradGradGradGradGradGradGradGradGradGradGradGradGrad

                          Input orientation:                          
 ---------------------------------------------------------------------
 Center     Atomic      Atomic             Coordinates (Angstroms)
 Number     Number       Type             X           Y           Z
 ---------------------------------------------------------------------
      1          6           0        0.801008    0.000296    0.000439
      2          1           0        0.766736   -0.727757    0.783246
      3          1           0        0.765939   -0.314062   -1.021355
      4          1           0        0.766408    1.042294    0.239129
      5         35           0       -1.710920   -0.000031   -0.000046
      6         17           0        3.104534   -0.000068   -0.000121
 ---------------------------------------------------------------------
                    Distance matrix (angstroms):
                    1          2          3          4          5
     1  C    0.000000
     2  H    1.069590   0.000000
     3  H    1.069633   1.851413   0.000000
     4  H    1.069547   1.851795   1.851627   0.000000
     5  Br   2.511928   2.698502   2.697502   2.698296   0.000000
     6  Cl   2.303526   2.570699   2.571097   2.571107   4.815454
                    6
     6  Cl   0.000000
 Stoichiometry    CH3BrCl(1-)
 Framework group  C1[X(CH3BrCl)]
 Deg. of freedom    12
 Full point group                 C1      NOp   1
 Largest Abelian subgroup         C1      NOp   1
 Largest concise Abelian subgroup C1      NOp   1
                         Standard orientation:                         
 ---------------------------------------------------------------------
 Center     Atomic      Atomic             Coordinates (Angstroms)
 Number     Number       Type             X           Y           Z
 ---------------------------------------------------------------------
      1          6           0       -0.801008    0.000296   -0.000439
      2          1           0       -0.766736   -0.728019   -0.783003
      3          1           0       -0.765939   -0.313720    1.021460
      4          1           0       -0.766408    1.042214   -0.239478
      5         35           0        1.710920   -0.000031    0.000046
      6         17           0       -3.104534   -0.000068    0.000121
 ---------------------------------------------------------------------
 Rotational constants (GHZ):         146.2620996           0.8749454           0.8749441
 Standard basis: CC-pVDZ (5D, 7F)
 There are    78 symmetry adapted cartesian basis functions of A   symmetry.
 There are    74 symmetry adapted basis functions of A   symmetry.
    74 basis functions,   272 primitive gaussians,    78 cartesian basis functions
    31 alpha electrons       31 beta electrons
       nuclear repulsion energy       173.9108314398 Hartrees.
 NAtoms=    6 NActive=    6 NUniq=    6 SFac= 1.00D+00 NAtFMM=   60 NAOKFM=F Big=F
 Integral buffers will be    131072 words long.
 Raffenetti 1 integral format.
 Two-electron integral symmetry is turned on.
 One-electron integrals computed using PRISM.
 NBasis=    74 RedAO= T EigKep=  2.32D-02  NBF=    74
 NBsUse=    74 1.00D-06 EigRej= -1.00D+00 NBFU=    74
 ExpMin= 1.22D-01 ExpMax= 6.40D+05 ExpMxC= 6.18D+03 IAcc=3 IRadAn=         5 AccDes= 0.00D+00
 Harris functional with IExCor=  205 and IRadAn=       5 diagonalized for initial guess.
 HarFok:  IExCor=  205 AccDes= 0.00D+00 IRadAn=         5 IDoV= 1 UseB2=F ITyADJ=14
 ICtDFT=  3500011 ScaDFX=  1.000000  1.000000  1.000000  1.000000
 FoFCou: FMM=F IPFlag=           0 FMFlag=      100000 FMFlg1=           0
         NFxFlg=           0 DoJE=T BraDBF=F KetDBF=T FulRan=T
         wScrn=  0.000000 ICntrl=       500 IOpCl=  0 I1Cent=   200000004 NGrid=           0
         NMat0=    1 NMatS0=      1 NMatT0=    0 NMatD0=    1 NMtDS0=    0 NMtDT0=    0
 Petite list used in FoFCou.
 Keep R1 ints in memory in canonical form, NReq=4923735.
 Requested convergence on RMS density matrix=1.00D-08 within 128 cycles.
 Requested convergence on MAX density matrix=1.00D-06.
 Requested convergence on             energy=1.00D-06.
 No special actions if energy rises.
 SCF Done:  E(RHF) =  -3071.54934538     A.U. after   12 cycles
            NFock= 12  Conv=0.60D-08     -V/T= 2.0003
 Range of M.O.s used for correlation:     1    74
 NBasis=    74 NAE=    31 NBE=    31 NFC=     0 NFV=     0
 NROrb=     74 NOA=    31 NOB=    31 NVA=    43 NVB=    43
 Symmetrizing basis deriv contribution to polar:
 IMax=3 JMax=2 DiffMx= 0.00D+00
 G2DrvN: will do     7 centers at a time, making    1 passes.
 Calling FoFCou, ICntrl=  3107 FMM=F I1Cent=   0 AccDes= 0.00D+00.
 End of G2Drv F.D. properties file   721 does not exist.
 End of G2Drv F.D. properties file   722 does not exist.
 End of G2Drv F.D. properties file   788 does not exist.
          IDoAtm=111111
          Differentiating once with respect to nuclear coordinates.
 Keep R1 ints in memory in canonical form, NReq=4922683.
          There are    21 degrees of freedom in the 1st order CPHF.  IDoFFX=6 NUNeed=     0.
     15 vectors produced by pass  0 Test12= 6.35D-15 4.76D-09 XBig12= 5.34D-02 1.73D-01.
 AX will form    15 AO Fock derivatives at one time.
     15 vectors produced by pass  1 Test12= 6.35D-15 4.76D-09 XBig12= 8.31D-04 1.11D-02.
     15 vectors produced by pass  2 Test12= 6.35D-15 4.76D-09 XBig12= 6.56D-05 3.73D-03.
     15 vectors produced by pass  3 Test12= 6.35D-15 4.76D-09 XBig12= 1.93D-06 8.36D-04.
     15 vectors produced by pass  4 Test12= 6.35D-15 4.76D-09 XBig12= 3.07D-08 8.43D-05.
     15 vectors produced by pass  5 Test12= 6.35D-15 4.76D-09 XBig12= 2.99D-10 5.73D-06.
     12 vectors produced by pass  6 Test12= 6.35D-15 4.76D-09 XBig12= 7.62D-13 2.34D-07.
      4 vectors produced by pass  7 Test12= 6.35D-15 4.76D-09 XBig12= 6.74D-15 2.39D-08.
 InvSVY:  IOpt=1 It=  1 EMax= 1.55D-15
 Solved reduced A of dimension   106 with    15 vectors.
 End of Minotr F.D. properties file   721 does not exist.
 End of Minotr F.D. properties file   722 does not exist.
 End of Minotr F.D. properties file   788 does not exist.

 **********************************************************************

            Population analysis using the SCF Density.

 **********************************************************************

 Orbital symmetries:
       Occupied  (A) (A) (A) (A) (A) (A) (A) (A) (A) (A) (A) (A)
                 (A) (A) (A) (A) (A) (A) (A) (A) (A) (A) (A) (A)
                 (A) (A) (A) (A) (A) (A) (A)
       Virtual   (A) (A) (A) (A) (A) (A) (A) (A) (A) (A) (A) (A)
                 (A) (A) (A) (A) (A) (A) (A) (A) (A) (A) (A) (A)
                 (A) (A) (A) (A) (A) (A) (A) (A) (A) (A) (A) (A)
                 (A) (A) (A) (A) (A) (A) (A)
 The electronic state is 1-A.
 Alpha  occ. eigenvalues -- -489.81946-104.58215 -64.95472 -58.31127 -58.31092
 Alpha  occ. eigenvalues --  -58.31092 -11.18258 -10.30592  -9.59970  -7.77266
 Alpha  occ. eigenvalues --   -7.77125  -7.77125  -7.20889  -7.20640  -7.20640
 Alpha  occ. eigenvalues --   -2.94417  -2.94299  -2.94299  -2.94031  -2.94031
 Alpha  occ. eigenvalues --   -0.86040  -0.79044  -0.72525  -0.48185  -0.48174
 Alpha  occ. eigenvalues --   -0.27662  -0.22901  -0.22901  -0.18787  -0.18787
 Alpha  occ. eigenvalues --   -0.17161
 Alpha virt. eigenvalues --    0.28683   0.33403   0.39767   0.39769   0.73025
 Alpha virt. eigenvalues --    0.73038   0.82685   0.89040   0.92470   0.93270
 Alpha virt. eigenvalues --    0.93271   0.95729   0.95731   0.98030   0.99324
 Alpha virt. eigenvalues --    0.99329   1.03179   1.03181   1.04423   1.04426
 Alpha virt. eigenvalues --    1.06374   1.13834   1.21404   1.21406   1.21727
 Alpha virt. eigenvalues --    1.22967   1.22967   1.42804   1.42813   1.55026
 Alpha virt. eigenvalues --    1.65962   1.74550   1.92857   1.92871   1.97905
 Alpha virt. eigenvalues --    2.25626   2.25659   2.37423   2.52928   2.52956
 Alpha virt. eigenvalues --    2.96153   2.99440   2.99447
          Condensed to atoms (all electrons):
               1          2          3          4          5          6
     1  C    4.501364   0.425875   0.425891   0.425873   0.040272   0.075869
     2  H    0.425875   0.513774  -0.016494  -0.016486  -0.011307  -0.015639
     3  H    0.425891  -0.016494   0.513744  -0.016488  -0.011342  -0.015631
     4  H    0.425873  -0.016486  -0.016488   0.513761  -0.011311  -0.015622
     5  Br   0.040272  -0.011307  -0.011342  -0.011311  35.756957   0.004277
     6  Cl   0.075869  -0.015639  -0.015631  -0.015622   0.004277  17.664927
 Mulliken charges:
               1
     1  C    0.104856
     2  H    0.120277
     3  H    0.120321
     4  H    0.120273
     5  Br  -0.767545
     6  Cl  -0.698182
 Sum of Mulliken charges =  -1.00000
 Mulliken charges with hydrogens summed into heavy atoms:
               1
     1  C    0.465727
     5  Br  -0.767545
     6  Cl  -0.698182
 APT charges:
               1
     1  C   -0.424096
     2  H    0.292884
     3  H    0.292619
     4  H    0.292831
     5  Br  -0.744583
     6  Cl  -0.709654
 Sum of APT charges =  -1.00000
 APT charges with hydrogens summed into heavy atoms:
               1
     1  C    0.454238
     5  Br  -0.744583
     6  Cl  -0.709654
 Electronic spatial extent (au):  <R**2>=           1107.3426
 Charge=             -1.0000 electrons
 Dipole moment (field-independent basis, Debye):
    X=              2.4144    Y=              0.0006    Z=             -0.0011  Tot=              2.4144
 Quadrupole moment (field-independent basis, Debye-Ang):
   XX=            -83.9918   YY=            -41.4483   ZZ=            -41.4499
   XY=             -0.0006   XZ=              0.0025   YZ=              0.0000
 Traceless Quadrupole moment (field-independent basis, Debye-Ang):
   XX=            -28.3618   YY=             14.1817   ZZ=             14.1801
   XY=             -0.0006   XZ=              0.0025   YZ=              0.0000
 Octapole moment (field-independent basis, Debye-Ang**2):
  XXX=            126.4298  YYY=              0.8573  ZZZ=              0.6884  XYY=             14.0950
  XXY=              0.0006  XXZ=             -0.0036  XZZ=             14.0968  YZZ=             -0.8573
  YYZ=             -0.6890  XYZ=             -0.0005
 Hexadecapole moment (field-independent basis, Debye-Ang**3):
 XXXX=          -1590.7619 YYYY=            -54.0360 ZZZZ=            -54.0385 XXXY=             -0.0037
 XXXZ=              0.0140 YYYX=             -0.6588 YYYZ=             -0.0004 ZZZX=             -0.5224
 ZZZY=              0.0007 XXYY=           -224.1858 XXZZ=           -224.1874 YYZZ=            -18.0121
 XXYZ=              0.0007 YYXZ=              0.5297 ZZXY=              0.6563
 N-N= 1.739108314398D+02 E-N=-7.702146208784D+03  KE= 3.070519685317D+03
  Exact polarizability:       0.000       0.000       0.000       0.000       0.000       0.000
 Approx polarizability:      67.292       0.001      25.822       0.000       0.000      25.821
 Calling FoFJK, ICntrl=    100127 FMM=F ISym2X=0 I1Cent= 0 IOpClX= 0 NMat=1 NMatS=1 NMatT=0.
 ***** Axes restored to original set *****
 -------------------------------------------------------------------
 Center     Atomic                   Forces (Hartrees/Bohr)
 Number     Number              X              Y              Z
 -------------------------------------------------------------------
      1        6           0.011629946   -0.000106910   -0.000098912
      2        1          -0.000077321    0.000081804   -0.000025007
      3        1          -0.000024494    0.000055813    0.000099960
      4        1          -0.000054387   -0.000043146    0.000009523
      5       35          -0.011556938    0.000002972    0.000015201
      6       17           0.000083194    0.000009466   -0.000000765
 -------------------------------------------------------------------
 Cartesian Forces:  Max     0.011629946 RMS     0.003864934
 FormGI is forming the generalized inverse of G from B-inverse, IUseBI=4.

 GradGradGradGradGradGradGradGradGradGradGradGradGradGradGradGradGradGrad
 Berny optimization.
 Internal  Forces:  Max     0.011556934 RMS     0.002410125
 Search for a saddle point.
 Step number   1 out of a maximum of   33
 All quantities printed in internal units (Hartrees-Bohrs-Radians)
 Swapping is turned off.
 Second derivative matrix not updated -- analytic derivatives used.
 ITU=  0
     Eigenvalues ---   -0.01897   0.03480   0.03483   0.05520   0.05523
     Eigenvalues ---    0.06126   0.06895   0.07783   0.07784   0.43466
     Eigenvalues ---    0.44015   0.44029
 Eigenvectors required to have negative eigenvalues:
                          R5        R4        D1        A6        A4
   1                   -0.60476   0.54101   0.47607  -0.13817   0.13801
                          A7        A9        A8        A3        A5
   1                    0.13793   0.13790  -0.13789  -0.13777  -0.01672
 RFO step:  Lambda0=1.872686261D-03 Lambda=-1.41549821D-03.
 Linear search not attempted -- option 19 set.
 Iteration  1 RMS(Cart)=  0.03230894 RMS(Int)=  0.00728522
 Iteration  2 RMS(Cart)=  0.00645489 RMS(Int)=  0.00191558
 Iteration  3 RMS(Cart)=  0.00000016 RMS(Int)=  0.00191558
 Variable       Old X    -DE/DX   Delta X   Delta X   Delta X     New X
                                 (Linear)    (Quad)   (Total)
    R1        2.02123  -0.00007   0.00000   0.00062   0.00062   2.02186
    R2        2.02131  -0.00011   0.00000   0.00055   0.00055   2.02186
    R3        2.02115  -0.00004   0.00000   0.00071   0.00071   2.02186
    R4        4.74686   0.01156   0.00000  -0.03965  -0.03965   4.70721
    R5        4.35303   0.00008   0.00000   0.23320   0.23320   4.58623
    A1        2.09214   0.00001   0.00000   0.00660   0.00130   2.09344
    A2        2.09299  -0.00002   0.00000   0.00583   0.00055   2.09354
    A3        1.53880  -0.00005   0.00000   0.05502   0.05486   1.59366
    A4        1.60291   0.00004   0.00000  -0.05520  -0.05504   1.54787
    A5        2.09261   0.00000   0.00000   0.00620   0.00088   2.09349
    A6        1.53778   0.00002   0.00000   0.05605   0.05588   1.59367
    A7        1.60331   0.00001   0.00000  -0.05553  -0.05536   1.54795
    A8        1.53861  -0.00003   0.00000   0.05522   0.05506   1.59367
    A9        1.60336   0.00001   0.00000  -0.05556  -0.05540   1.54797
   A10        3.14172   0.00000   0.00000  -0.00018  -0.00018   3.14153
   A11        3.14108   0.00003   0.00000   0.00050   0.00050   3.14158
    D1       -3.02947   0.00006   0.00000  -0.19138  -0.19129   3.06242
    D2       -2.09397  -0.00002   0.00000  -0.00036  -0.00038  -2.09434
    D3        2.09394   0.00002   0.00000   0.00042   0.00040   2.09434
    D4        2.09477  -0.00001   0.00000  -0.00029  -0.00033   2.09445
    D5       -2.09480   0.00001   0.00000   0.00037   0.00035  -2.09445
    D6       -2.09445   0.00000   0.00000   0.00007   0.00005  -2.09440
    D7        2.09444   0.00000   0.00000  -0.00005  -0.00005   2.09439
         Item               Value     Threshold  Converged?
 Maximum Force            0.011557     0.000450     NO 
 RMS     Force            0.002410     0.000300     NO 
 Maximum Displacement     0.131873     0.001800     NO 
 RMS     Displacement     0.037178     0.001200     NO 
 Predicted change in Energy= 2.974944D-04
 GradGradGradGradGradGradGradGradGradGradGradGradGradGradGradGradGradGrad

                          Input orientation:                          
 ---------------------------------------------------------------------
 Center     Atomic      Atomic             Coordinates (Angstroms)
 Number     Number       Type             X           Y           Z
 ---------------------------------------------------------------------
      1          6           0        0.747388    0.000139    0.000208
      2          1           0        0.771927   -0.728133    0.783628
      3          1           0        0.771778   -0.314242   -1.022193
      4          1           0        0.771852    1.042752    0.239143
      5         35           0       -1.743558    0.000082    0.000409
      6         17           0        3.174318    0.000074    0.000097
 ---------------------------------------------------------------------
                    Distance matrix (angstroms):
                    1          2          3          4          5
     1  C    0.000000
     2  H    1.069920   0.000000
     3  H    1.069923   1.852646   0.000000
     4  H    1.069921   1.852701   1.852674   0.000000
     5  Br   2.490946   2.733385   2.733392   2.733395   0.000000
     6  Cl   2.426930   2.629770   2.629842   2.629860   4.917876
                    6
     6  Cl   0.000000
 Stoichiometry    CH3BrCl(1-)
 Framework group  C1[X(CH3BrCl)]
 Deg. of freedom    12
 Full point group                 C1      NOp   1
 Largest Abelian subgroup         C1      NOp   1
 Largest concise Abelian subgroup C1      NOp   1
                         Standard orientation:                         
 ---------------------------------------------------------------------
 Center     Atomic      Atomic             Coordinates (Angstroms)
 Number     Number       Type             X           Y           Z
 ---------------------------------------------------------------------
      1          6           0       -0.751671    0.000053    0.000034
      2          1           0       -0.776160   -0.747935   -0.764587
      3          1           0       -0.776127   -0.288188    1.030108
      4          1           0       -0.776119    1.036243   -0.265378
      5         35           0        1.739276   -0.000006   -0.000005
      6         17           0       -3.178601   -0.000013   -0.000010
 ---------------------------------------------------------------------
 Rotational constants (GHZ):         146.0946185           0.8413347           0.8413345
 Standard basis: CC-pVDZ (5D, 7F)
 There are    78 symmetry adapted cartesian basis functions of A   symmetry.
 There are    74 symmetry adapted basis functions of A   symmetry.
    74 basis functions,   272 primitive gaussians,    78 cartesian basis functions
    31 alpha electrons       31 beta electrons
       nuclear repulsion energy       171.2261936329 Hartrees.
 NAtoms=    6 NActive=    6 NUniq=    6 SFac= 1.00D+00 NAtFMM=   60 NAOKFM=F Big=F
 Integral buffers will be    131072 words long.
 Raffenetti 1 integral format.
 Two-electron integral symmetry is turned on.
 One-electron integrals computed using PRISM.
 NBasis=    74 RedAO= T EigKep=  2.38D-02  NBF=    74
 NBsUse=    74 1.00D-06 EigRej= -1.00D+00 NBFU=    74
 Initial guess from the checkpoint file:  "C:\Users\chemistry\Documents\Gruppe H\inputCC_ÜZ.chk"
 B after Tr=     0.000000    0.000000    0.000000
         Rot=    0.999921    0.012568    0.000003    0.000000 Ang=   1.44 deg.
 ExpMin= 1.22D-01 ExpMax= 6.40D+05 ExpMxC= 6.18D+03 IAcc=3 IRadAn=         5 AccDes= 0.00D+00
 Harris functional with IExCor=  205 and IRadAn=       5 diagonalized for initial guess.
 HarFok:  IExCor=  205 AccDes= 0.00D+00 IRadAn=         5 IDoV= 1 UseB2=F ITyADJ=14
 ICtDFT=  3500011 ScaDFX=  1.000000  1.000000  1.000000  1.000000
 FoFCou: FMM=F IPFlag=           0 FMFlag=      100000 FMFlg1=           0
         NFxFlg=           0 DoJE=T BraDBF=F KetDBF=T FulRan=T
         wScrn=  0.000000 ICntrl=       500 IOpCl=  0 I1Cent=   200000004 NGrid=           0
         NMat0=    1 NMatS0=      1 NMatT0=    0 NMatD0=    1 NMtDS0=    0 NMtDT0=    0
 Petite list used in FoFCou.
 Keep R1 ints in memory in canonical form, NReq=4923094.
 Requested convergence on RMS density matrix=1.00D-08 within 128 cycles.
 Requested convergence on MAX density matrix=1.00D-06.
 Requested convergence on             energy=1.00D-06.
 No special actions if energy rises.
 SCF Done:  E(RHF) =  -3071.54902001     A.U. after   10 cycles
            NFock= 10  Conv=0.91D-08     -V/T= 2.0004
 Calling FoFJK, ICntrl=      2127 FMM=F ISym2X=0 I1Cent= 0 IOpClX= 0 NMat=1 NMatS=1 NMatT=0.
 ***** Axes restored to original set *****
 -------------------------------------------------------------------
 Center     Atomic                   Forces (Hartrees/Bohr)
 Number     Number              X              Y              Z
 -------------------------------------------------------------------
      1        6           0.002334795   -0.000008295   -0.000004713
      2        1          -0.000506755   -0.000164890    0.000185465
      3        1          -0.000504828   -0.000070301   -0.000237749
      4        1          -0.000504127    0.000241610    0.000058270
      5       35          -0.000663534    0.000000508   -0.000000300
      6       17          -0.000155551    0.000001368   -0.000000973
 -------------------------------------------------------------------
 Cartesian Forces:  Max     0.002334795 RMS     0.000617632

 GradGradGradGradGradGradGradGradGradGradGradGradGradGradGradGradGradGrad
 Berny optimization.
 FormGI is forming the generalized inverse of G from B-inverse, IUseBI=4.
 Internal  Forces:  Max     0.000663534 RMS     0.000225200
 Search for a saddle point.
 Step number   2 out of a maximum of   33
 All quantities printed in internal units (Hartrees-Bohrs-Radians)
 Swapping is turned off.
 Update second derivatives using D2CorX and points    1    2
 ITU=  0  0
     Eigenvalues ---   -0.01796   0.03477   0.03483   0.05499   0.05501
     Eigenvalues ---    0.06169   0.06857   0.07759   0.07760   0.43496
     Eigenvalues ---    0.44015   0.44029
 Eigenvectors required to have negative eigenvalues:
                          R5        R4        D1        A6        A7
   1                   -0.61485   0.54162   0.46754  -0.13537   0.13518
                          A9        A4        A8        A3        A1
   1                    0.13517   0.13516  -0.13511  -0.13503   0.01377
 RFO step:  Lambda0=4.242766279D-05 Lambda=-3.95993471D-06.
 Linear search not attempted -- option 19 set.
 Iteration  1 RMS(Cart)=  0.00572937 RMS(Int)=  0.00002371
 Iteration  2 RMS(Cart)=  0.00001200 RMS(Int)=  0.00002042
 Iteration  3 RMS(Cart)=  0.00000000 RMS(Int)=  0.00002042
 Variable       Old X    -DE/DX   Delta X   Delta X   Delta X     New X
                                 (Linear)    (Quad)   (Total)
    R1        2.02186   0.00024   0.00000   0.00062   0.00062   2.02248
    R2        2.02186   0.00024   0.00000   0.00062   0.00062   2.02248
    R3        2.02186   0.00024   0.00000   0.00060   0.00060   2.02246
    R4        4.70721   0.00066   0.00000  -0.02359  -0.02359   4.68362
    R5        4.58623  -0.00016   0.00000   0.03556   0.03556   4.62179
    A1        2.09344   0.00001   0.00000  -0.00087  -0.00093   2.09251
    A2        2.09354   0.00001   0.00000  -0.00027  -0.00033   2.09322
    A3        1.59366  -0.00017   0.00000   0.00572   0.00572   1.59938
    A4        1.54787   0.00018   0.00000  -0.00568  -0.00568   1.54219
    A5        2.09349   0.00002   0.00000  -0.00022  -0.00027   2.09322
    A6        1.59367  -0.00017   0.00000   0.00573   0.00573   1.59940
    A7        1.54795   0.00017   0.00000  -0.00573  -0.00573   1.54221
    A8        1.59367  -0.00017   0.00000   0.00570   0.00570   1.59937
    A9        1.54797   0.00017   0.00000  -0.00574  -0.00574   1.54223
   A10        3.14153   0.00000   0.00000   0.00004   0.00004   3.14157
   A11        3.14158   0.00000   0.00000   0.00002   0.00002   3.14160
    D1        3.06242   0.00060   0.00000  -0.01979  -0.01979   3.04263
    D2       -2.09434   0.00000   0.00000   0.00042   0.00042  -2.09392
    D3        2.09434   0.00000   0.00000  -0.00042  -0.00042   2.09392
    D4        2.09445   0.00000   0.00000   0.00018   0.00018   2.09463
    D5       -2.09445   0.00000   0.00000  -0.00018  -0.00018  -2.09463
    D6       -2.09440   0.00000   0.00000  -0.00024  -0.00024  -2.09463
    D7        2.09439   0.00000   0.00000   0.00024   0.00024   2.09463
         Item               Value     Threshold  Converged?
 Maximum Force            0.000664     0.000450     NO 
 RMS     Force            0.000225     0.000300     YES
 Maximum Displacement     0.019915     0.001800     NO 
 RMS     Displacement     0.005729     0.001200     NO 
 Predicted change in Energy= 1.929019D-05
 GradGradGradGradGradGradGradGradGradGradGradGradGradGradGradGradGradGrad

                          Input orientation:                          
 ---------------------------------------------------------------------
 Center     Atomic      Atomic             Coordinates (Angstroms)
 Number     Number       Type             X           Y           Z
 ---------------------------------------------------------------------
      1          6           0        0.739108    0.000188    0.000226
      2          1           0        0.769758   -0.728359    0.783624
      3          1           0        0.769638   -0.314467   -1.022269
      4          1           0        0.769699    1.042952    0.239214
      5         35           0       -1.739355    0.000179    0.000410
      6         17           0        3.184857    0.000179    0.000087
 ---------------------------------------------------------------------
                    Distance matrix (angstroms):
                    1          2          3          4          5
     1  C    0.000000
     2  H    1.070249   0.000000
     3  H    1.070250   1.852716   0.000000
     4  H    1.070237   1.853085   1.853085   0.000000
     5  Br   2.478463   2.727607   2.727621   2.727591   0.000000
     6  Cl   2.445748   2.641477   2.641495   2.641504   4.924212
                    6
     6  Cl   0.000000
 Stoichiometry    CH3BrCl(1-)
 Framework group  C1[X(CH3BrCl)]
 Deg. of freedom    12
 Full point group                 C1      NOp   1
 Largest Abelian subgroup         C1      NOp   1
 Largest concise Abelian subgroup C1      NOp   1
                         Standard orientation:                         
 ---------------------------------------------------------------------
 Center     Atomic      Atomic             Coordinates (Angstroms)
 Number     Number       Type             X           Y           Z
 ---------------------------------------------------------------------
      1          6           0       -0.738963    0.000012    0.000020
      2          1           0       -0.769561   -0.535034   -0.926384
      3          1           0       -0.769560   -0.535192    0.926332
      4          1           0       -0.769537    1.069812    0.000111
      5         35           0        1.739501    0.000005   -0.000002
      6         17           0       -3.184711    0.000011   -0.000005
 ---------------------------------------------------------------------
 Rotational constants (GHZ):         146.0491585           0.8397008           0.8396995
 Standard basis: CC-pVDZ (5D, 7F)
 There are    78 symmetry adapted cartesian basis functions of A   symmetry.
 There are    74 symmetry adapted basis functions of A   symmetry.
    74 basis functions,   272 primitive gaussians,    78 cartesian basis functions
    31 alpha electrons       31 beta electrons
       nuclear repulsion energy       171.1923451086 Hartrees.
 NAtoms=    6 NActive=    6 NUniq=    6 SFac= 1.00D+00 NAtFMM=   60 NAOKFM=F Big=F
 Integral buffers will be    131072 words long.
 Raffenetti 1 integral format.
 Two-electron integral symmetry is turned on.
 One-electron integrals computed using PRISM.
 NBasis=    74 RedAO= T EigKep=  2.38D-02  NBF=    74
 NBsUse=    74 1.00D-06 EigRej= -1.00D+00 NBFU=    74
 Initial guess from the checkpoint file:  "C:\Users\chemistry\Documents\Gruppe H\inputCC_ÜZ.chk"
 B after Tr=     0.000000    0.000000    0.000000
         Rot=    0.992144   -0.125099    0.000000    0.000000 Ang= -14.37 deg.
 Keep R1 ints in memory in canonical form, NReq=4923094.
 Requested convergence on RMS density matrix=1.00D-08 within 128 cycles.
 Requested convergence on MAX density matrix=1.00D-06.
 Requested convergence on             energy=1.00D-06.
 No special actions if energy rises.
 SCF Done:  E(RHF) =  -3071.54900078     A.U. after    9 cycles
            NFock=  9  Conv=0.53D-08     -V/T= 2.0004
 Calling FoFJK, ICntrl=      2127 FMM=F ISym2X=0 I1Cent= 0 IOpClX= 0 NMat=1 NMatS=1 NMatT=0.
 ***** Axes restored to original set *****
 -------------------------------------------------------------------
 Center     Atomic                   Forces (Hartrees/Bohr)
 Number     Number              X              Y              Z
 -------------------------------------------------------------------
      1        6           0.000124489   -0.000062306   -0.000013386
      2        1          -0.000078449    0.000003850    0.000050005
      3        1          -0.000078443    0.000025140   -0.000043535
      4        1          -0.000075452    0.000033312    0.000007676
      5       35           0.000102364   -0.000000252   -0.000000438
      6       17           0.000005490    0.000000257   -0.000000322
 -------------------------------------------------------------------
 Cartesian Forces:  Max     0.000124489 RMS     0.000054914

 GradGradGradGradGradGradGradGradGradGradGradGradGradGradGradGradGradGrad
 Berny optimization.
 FormGI is forming the generalized inverse of G from B-inverse, IUseBI=4.
 Internal  Forces:  Max     0.000102364 RMS     0.000034408
 Search for a saddle point.
 Step number   3 out of a maximum of   33
 All quantities printed in internal units (Hartrees-Bohrs-Radians)
 Swapping is turned off.
 Update second derivatives using D2CorX and points    1    2    3
 ITU=  0  0  0
     Eigenvalues ---   -0.01793   0.03479   0.03483   0.05494   0.05497
     Eigenvalues ---    0.06180   0.06881   0.07753   0.07755   0.43495
     Eigenvalues ---    0.44014   0.44028
 Eigenvectors required to have negative eigenvalues:
                          R5        R4        D1        A8        A9
   1                   -0.61726   0.56707   0.44447  -0.12910   0.12906
                          A7        A6        A3        A4        A2
   1                    0.12860  -0.12853  -0.12841   0.12838   0.01395
 RFO step:  Lambda0=1.566694864D-11 Lambda=-4.01551626D-07.
 Linear search not attempted -- option 19 set.
 Iteration  1 RMS(Cart)=  0.00046026 RMS(Int)=  0.00000015
 Iteration  2 RMS(Cart)=  0.00000009 RMS(Int)=  0.00000012
 Variable       Old X    -DE/DX   Delta X   Delta X   Delta X     New X
                                 (Linear)    (Quad)   (Total)
    R1        2.02248   0.00003   0.00000   0.00006   0.00006   2.02253
    R2        2.02248   0.00003   0.00000   0.00006   0.00006   2.02253
    R3        2.02246   0.00003   0.00000   0.00008   0.00008   2.02253
    R4        4.68362  -0.00010   0.00000  -0.00157  -0.00157   4.68205
    R5        4.62179   0.00001   0.00000   0.00013   0.00013   4.62192
    A1        2.09251   0.00002   0.00000   0.00045   0.00045   2.09295
    A2        2.09322  -0.00001   0.00000  -0.00016  -0.00016   2.09306
    A3        1.59938  -0.00003   0.00000  -0.00044  -0.00044   1.59894
    A4        1.54219   0.00003   0.00000   0.00045   0.00045   1.54264
    A5        2.09322  -0.00001   0.00000  -0.00016  -0.00016   2.09306
    A6        1.59940  -0.00003   0.00000  -0.00045  -0.00045   1.59894
    A7        1.54221   0.00003   0.00000   0.00043   0.00043   1.54265
    A8        1.59937  -0.00002   0.00000  -0.00040  -0.00040   1.59898
    A9        1.54223   0.00002   0.00000   0.00040   0.00040   1.54263
   A10        3.14157   0.00000   0.00000   0.00001   0.00001   3.14158
   A11        3.14160   0.00000   0.00000  -0.00001  -0.00001   3.14158
    D1        3.04263   0.00009   0.00000   0.00150   0.00150   3.04414
    D2       -2.09392  -0.00002   0.00000  -0.00040  -0.00040  -2.09433
    D3        2.09392   0.00002   0.00000   0.00040   0.00040   2.09433
    D4        2.09463  -0.00001   0.00000  -0.00020  -0.00020   2.09443
    D5       -2.09463   0.00001   0.00000   0.00020   0.00020  -2.09443
    D6       -2.09463   0.00001   0.00000   0.00020   0.00020  -2.09443
    D7        2.09463  -0.00001   0.00000  -0.00020  -0.00020   2.09443
         Item               Value     Threshold  Converged?
 Maximum Force            0.000102     0.000450     YES
 RMS     Force            0.000034     0.000300     YES
 Maximum Displacement     0.001719     0.001800     YES
 RMS     Displacement     0.000460     0.001200     YES
 Predicted change in Energy=-2.007627D-07
 Optimization completed.
    -- Stationary point found.
                           ----------------------------
                           !   Optimized Parameters   !
                           ! (Angstroms and Degrees)  !
 --------------------------                            --------------------------
 ! Name  Definition              Value          Derivative Info.                !
 --------------------------------------------------------------------------------
 ! R1    R(1,2)                  1.0702         -DE/DX =    0.0                 !
 ! R2    R(1,3)                  1.0702         -DE/DX =    0.0                 !
 ! R3    R(1,4)                  1.0702         -DE/DX =    0.0                 !
 ! R4    R(1,5)                  2.4785         -DE/DX =   -0.0001              !
 ! R5    R(1,6)                  2.4457         -DE/DX =    0.0                 !
 ! A1    A(2,1,3)              119.8919         -DE/DX =    0.0                 !
 ! A2    A(2,1,4)              119.9325         -DE/DX =    0.0                 !
 ! A3    A(2,1,5)               91.6378         -DE/DX =    0.0                 !
 ! A4    A(2,1,6)               88.3612         -DE/DX =    0.0                 !
 ! A5    A(3,1,4)              119.9325         -DE/DX =    0.0                 !
 ! A6    A(3,1,5)               91.6386         -DE/DX =    0.0                 !
 ! A7    A(3,1,6)               88.3622         -DE/DX =    0.0                 !
 ! A8    A(4,1,5)               91.6372         -DE/DX =    0.0                 !
 ! A9    A(4,1,6)               88.363          -DE/DX =    0.0                 !
 ! A10   L(5,1,6,2,-1)         179.999          -DE/DX =    0.0                 !
 ! A11   L(5,1,6,2,-2)         180.0004         -DE/DX =    0.0                 !
 ! D1    D(2,1,4,3)            174.3301         -DE/DX =    0.0001              !
 ! D2    D(2,1,5,3)           -119.9729         -DE/DX =    0.0                 !
 ! D3    D(2,1,6,3)            119.9729         -DE/DX =    0.0                 !
 ! D4    D(2,1,5,4)            120.0135         -DE/DX =    0.0                 !
 ! D5    D(2,1,6,4)           -120.0136         -DE/DX =    0.0                 !
 ! D6    D(3,1,5,4)           -120.0135         -DE/DX =    0.0                 !
 ! D7    D(3,1,6,4)            120.0135         -DE/DX =    0.0                 !
 --------------------------------------------------------------------------------
 GradGradGradGradGradGradGradGradGradGradGradGradGradGradGradGradGradGrad

                          Input orientation:                          
 ---------------------------------------------------------------------
 Center     Atomic      Atomic             Coordinates (Angstroms)
 Number     Number       Type             X           Y           Z
 ---------------------------------------------------------------------
      1          6           0        0.739108    0.000188    0.000226
      2          1           0        0.769758   -0.728359    0.783624
      3          1           0        0.769638   -0.314467   -1.022269
      4          1           0        0.769699    1.042952    0.239214
      5         35           0       -1.739355    0.000179    0.000410
      6         17           0        3.184857    0.000179    0.000087
 ---------------------------------------------------------------------
                    Distance matrix (angstroms):
                    1          2          3          4          5
     1  C    0.000000
     2  H    1.070249   0.000000
     3  H    1.070250   1.852716   0.000000
     4  H    1.070237   1.853085   1.853085   0.000000
     5  Br   2.478463   2.727607   2.727621   2.727591   0.000000
     6  Cl   2.445748   2.641477   2.641495   2.641504   4.924212
                    6
     6  Cl   0.000000
 Stoichiometry    CH3BrCl(1-)
 Framework group  C1[X(CH3BrCl)]
 Deg. of freedom    12
 Full point group                 C1      NOp   1
 Largest Abelian subgroup         C1      NOp   1
 Largest concise Abelian subgroup C1      NOp   1
                         Standard orientation:                         
 ---------------------------------------------------------------------
 Center     Atomic      Atomic             Coordinates (Angstroms)
 Number     Number       Type             X           Y           Z
 ---------------------------------------------------------------------
      1          6           0       -0.738963    0.000012    0.000020
      2          1           0       -0.769561   -0.535034   -0.926384
      3          1           0       -0.769560   -0.535192    0.926332
      4          1           0       -0.769537    1.069812    0.000111
      5         35           0        1.739501    0.000005   -0.000002
      6         17           0       -3.184711    0.000011   -0.000005
 ---------------------------------------------------------------------
 Rotational constants (GHZ):         146.0491585           0.8397008           0.8396995

 **********************************************************************

            Population analysis using the SCF Density.

 **********************************************************************

 Orbital symmetries:
       Occupied  (A) (A) (A) (A) (A) (A) (A) (A) (A) (A) (A) (A)
                 (A) (A) (A) (A) (A) (A) (A) (A) (A) (A) (A) (A)
                 (A) (A) (A) (A) (A) (A) (A)
       Virtual   (A) (A) (A) (A) (A) (A) (A) (A) (A) (A) (A) (A)
                 (A) (A) (A) (A) (A) (A) (A) (A) (A) (A) (A) (A)
                 (A) (A) (A) (A) (A) (A) (A) (A) (A) (A) (A) (A)
                 (A) (A) (A) (A) (A) (A) (A)
 The electronic state is 1-A.
 Alpha  occ. eigenvalues -- -489.83906-104.56305 -64.97422 -58.33085 -58.33037
 Alpha  occ. eigenvalues --  -58.33037 -11.19094 -10.28607  -9.61915  -7.75270
 Alpha  occ. eigenvalues --   -7.75161  -7.75161  -7.22876  -7.22556  -7.22556
 Alpha  occ. eigenvalues --   -2.96419  -2.96271  -2.96271  -2.95914  -2.95914
 Alpha  occ. eigenvalues --   -0.84868  -0.78900  -0.73854  -0.48647  -0.48638
 Alpha  occ. eigenvalues --   -0.26597  -0.21267  -0.21267  -0.20286  -0.20286
 Alpha  occ. eigenvalues --   -0.17864
 Alpha virt. eigenvalues --    0.26915   0.33192   0.39445   0.39445   0.72230
 Alpha virt. eigenvalues --    0.72243   0.81903   0.88727   0.91221   0.92537
 Alpha virt. eigenvalues --    0.92538   0.95417   0.95419   0.98157   0.98159
 Alpha virt. eigenvalues --    0.98368   1.02635   1.02637   1.04208   1.04210
 Alpha virt. eigenvalues --    1.07493   1.12227   1.20259   1.23783   1.23784
 Alpha virt. eigenvalues --    1.24671   1.24671   1.40524   1.40529   1.53424
 Alpha virt. eigenvalues --    1.65374   1.73971   1.91494   1.91512   1.94306
 Alpha virt. eigenvalues --    2.24926   2.24955   2.34980   2.52181   2.52209
 Alpha virt. eigenvalues --    2.95017   2.98639   2.98652
          Condensed to atoms (all electrons):
               1          2          3          4          5          6
     1  C    4.492454   0.422806   0.422805   0.422812   0.074365   0.051843
     2  H    0.422806   0.508502  -0.016828  -0.016813  -0.012510  -0.007326
     3  H    0.422805  -0.016828   0.508504  -0.016813  -0.012509  -0.007325
     4  H    0.422812  -0.016813  -0.016813   0.508456  -0.012517  -0.007330
     5  Br   0.074365  -0.012510  -0.012509  -0.012517  35.669003   0.003132
     6  Cl   0.051843  -0.007326  -0.007325  -0.007330   0.003132  17.737497
 Mulliken charges:
               1
     1  C    0.112915
     2  H    0.122169
     3  H    0.122167
     4  H    0.122204
     5  Br  -0.708965
     6  Cl  -0.770491
 Sum of Mulliken charges =  -1.00000
 Mulliken charges with hydrogens summed into heavy atoms:
               1
     1  C    0.479455
     5  Br  -0.708965
     6  Cl  -0.770491
 Electronic spatial extent (au):  <R**2>=           1151.4187
 Charge=             -1.0000 electrons
 Dipole moment (field-independent basis, Debye):
    X=              4.1147    Y=             -0.0002    Z=              0.0001  Tot=              4.1147
 Quadrupole moment (field-independent basis, Debye-Ang):
   XX=            -88.1830   YY=            -41.4476   ZZ=            -41.4494
   XY=              0.0003   XZ=             -0.0001   YZ=              0.0000
 Traceless Quadrupole moment (field-independent basis, Debye-Ang):
   XX=            -31.1563   YY=             15.5791   ZZ=             15.5773
   XY=              0.0003   XZ=             -0.0001   YZ=              0.0000
 Octapole moment (field-independent basis, Debye-Ang**2):
  XXX=            150.5204  YYY=              1.1209  ZZZ=             -0.0003  XYY=             15.2241
  XXY=             -0.0005  XXZ=              0.0001  XZZ=             15.2254  YZZ=             -1.1214
  YYZ=              0.0003  XYZ=              0.0000
 Hexadecapole moment (field-independent basis, Debye-Ang**3):
 XXXX=          -1717.0624 YYYY=            -53.9820 ZZZZ=            -53.9826 XXXY=              0.0016
 XXXZ=             -0.0006 YYYX=             -0.8689 YYYZ=              0.0000 ZZZX=              0.0000
 ZZZY=             -0.0001 XXYY=           -234.3198 XXZZ=           -234.3204 YYZZ=            -17.9935
 XXYZ=              0.0000 YYXZ=             -0.0003 ZZXY=              0.8698
 N-N= 1.711923451086D+02 E-N=-7.696270689955D+03  KE= 3.070452987952D+03
 Unable to Open any file for archive entry.
 1|1|UNPC-LAPTOP-PP56KN09|FTS|RHF|CC-pVDZ|C1H3Br1Cl1(1-)|CHEMISTRY|01-D
 ec-2022|0||# opt=(calcfc,ts) freq hf/cc-pvdz geom=connectivity||Title 
 Card Required||-1,1|C,0.7391082686,0.0001880414,0.0002255081|H,0.76975
 77753,-0.7283585602,0.7836244877|H,0.7696376513,-0.3144669641,-1.02226
 86634|H,0.7696993806,1.042951834,0.2392137869|Br,-1.7393547843,0.00017
 90405,0.0004095551|Cl,3.1848567086,0.0001786084,0.0000873256||Version=
 EM64W-G16RevC.01|State=1-A|HF=-3071.5490008|RMSD=5.305e-009|RMSF=5.491
 e-005|Dipole=-1.61885,-0.0000801,0.0000641|Quadrupole=-23.1639572,11.5
 825784,11.5813789,-0.0001488,0.0021987,0.0002879|PG=C01 [X(C1H3Br1Cl1)
 ]||@
 The archive entry for this job was punched.


 YOU SHOULDN'T LET PEOPLE DRIVE YOU CRAZY
 WHEN YOU KNOW IT'S WITHIN WALKING DISTANCE.
 Job cpu time:       0 days  0 hours  0 minutes 21.0 seconds.
 Elapsed time:       0 days  0 hours  0 minutes 19.4 seconds.
 File lengths (MBytes):  RWF=      9 Int=      0 D2E=      0 Chk=      2 Scr=      1
 Normal termination of Gaussian 16 at Thu Dec 01 12:54:21 2022.
 Link1:  Proceeding to internal job step number  2.
 ----------------------------------------------------------------
 #N Geom=AllCheck Guess=TCheck SCRF=Check GenChk RHF/CC-pVDZ Freq
 ----------------------------------------------------------------
 1/5=1,10=4,29=7,30=1,38=1,40=1/1,3;
 2/12=2,40=1/2;
 3/5=16,11=1,14=-4,25=1,30=1,70=2,71=2,116=1,140=1/1,2,3;
 4/5=101/1;
 5/5=2,38=6,98=1/2;
 8/6=4,10=90,11=11/1;
 10/13=10,15=4/2;
 11/6=3,8=1,9=11,15=111,16=1/1,2,10;
 10/6=1/2;
 6/7=2,8=2,9=2,10=2,28=1/1;
 7/8=1,10=1,25=1/1,2,3,16;
 1/5=1,10=4,30=1/3;
 99//99;
 Structure from the checkpoint file:  "C:\Users\chemistry\Documents\Gruppe H\inputCC_ÜZ.chk"
 -------------------
 Title Card Required
 -------------------
 Charge = -1 Multiplicity = 1
 Redundant internal coordinates found in file.  (old form).
 C,0,0.7391082686,0.0001880414,0.0002255081
 H,0,0.7697577753,-0.7283585602,0.7836244877
 H,0,0.7696376513,-0.3144669641,-1.0222686634
 H,0,0.7696993806,1.042951834,0.2392137869
 Br,0,-1.7393547843,0.0001790405,0.0004095551
 Cl,0,3.1848567086,0.0001786084,0.0000873256
 Recover connectivity data from disk.

 GradGradGradGradGradGradGradGradGradGradGradGradGradGradGradGradGradGrad
 Berny optimization.
 Initialization pass.
                           ----------------------------
                           !    Initial Parameters    !
                           ! (Angstroms and Degrees)  !
 --------------------------                            --------------------------
 ! Name  Definition              Value          Derivative Info.                !
 --------------------------------------------------------------------------------
 ! R1    R(1,2)                  1.0702         calculate D2E/DX2 analytically  !
 ! R2    R(1,3)                  1.0702         calculate D2E/DX2 analytically  !
 ! R3    R(1,4)                  1.0702         calculate D2E/DX2 analytically  !
 ! R4    R(1,5)                  2.4785         calculate D2E/DX2 analytically  !
 ! R5    R(1,6)                  2.4457         calculate D2E/DX2 analytically  !
 ! A1    A(2,1,3)              119.8919         calculate D2E/DX2 analytically  !
 ! A2    A(2,1,4)              119.9325         calculate D2E/DX2 analytically  !
 ! A3    A(2,1,5)               91.6378         calculate D2E/DX2 analytically  !
 ! A4    A(2,1,6)               88.3612         calculate D2E/DX2 analytically  !
 ! A5    A(3,1,4)              119.9325         calculate D2E/DX2 analytically  !
 ! A6    A(3,1,5)               91.6386         calculate D2E/DX2 analytically  !
 ! A7    A(3,1,6)               88.3622         calculate D2E/DX2 analytically  !
 ! A8    A(4,1,5)               91.6372         calculate D2E/DX2 analytically  !
 ! A9    A(4,1,6)               88.363          calculate D2E/DX2 analytically  !
 ! A10   L(5,1,6,2,-1)         179.999          calculate D2E/DX2 analytically  !
 ! A11   L(5,1,6,2,-2)         180.0004         calculate D2E/DX2 analytically  !
 ! D1    D(2,1,4,3)            174.3301         calculate D2E/DX2 analytically  !
 ! D2    D(2,1,5,3)           -119.9729         calculate D2E/DX2 analytically  !
 ! D3    D(2,1,6,3)            119.9729         calculate D2E/DX2 analytically  !
 ! D4    D(2,1,5,4)            120.0135         calculate D2E/DX2 analytically  !
 ! D5    D(2,1,6,4)           -120.0136         calculate D2E/DX2 analytically  !
 ! D6    D(3,1,5,4)           -120.0135         calculate D2E/DX2 analytically  !
 ! D7    D(3,1,6,4)            120.0135         calculate D2E/DX2 analytically  !
 --------------------------------------------------------------------------------
 Trust Radius=3.00D-01 FncErr=1.00D-07 GrdErr=1.00D-07 EigMax=2.50D+02 EigMin=1.00D-04
 Number of steps in this run=      2 maximum allowed number of steps=      2.
 Search for a saddle point of order  1.
 GradGradGradGradGradGradGradGradGradGradGradGradGradGradGradGradGradGrad

                          Input orientation:                          
 ---------------------------------------------------------------------
 Center     Atomic      Atomic             Coordinates (Angstroms)
 Number     Number       Type             X           Y           Z
 ---------------------------------------------------------------------
      1          6           0        0.739108    0.000188    0.000226
      2          1           0        0.769758   -0.728359    0.783624
      3          1           0        0.769638   -0.314467   -1.022269
      4          1           0        0.769699    1.042952    0.239214
      5         35           0       -1.739355    0.000179    0.000410
      6         17           0        3.184857    0.000179    0.000087
 ---------------------------------------------------------------------
                    Distance matrix (angstroms):
                    1          2          3          4          5
     1  C    0.000000
     2  H    1.070249   0.000000
     3  H    1.070250   1.852716   0.000000
     4  H    1.070237   1.853085   1.853085   0.000000
     5  Br   2.478463   2.727607   2.727621   2.727591   0.000000
     6  Cl   2.445748   2.641477   2.641495   2.641504   4.924212
                    6
     6  Cl   0.000000
 Stoichiometry    CH3BrCl(1-)
 Framework group  C1[X(CH3BrCl)]
 Deg. of freedom    12
 Full point group                 C1      NOp   1
 Largest Abelian subgroup         C1      NOp   1
 Largest concise Abelian subgroup C1      NOp   1
                         Standard orientation:                         
 ---------------------------------------------------------------------
 Center     Atomic      Atomic             Coordinates (Angstroms)
 Number     Number       Type             X           Y           Z
 ---------------------------------------------------------------------
      1          6           0       -0.738963    0.000012    0.000020
      2          1           0       -0.769561   -0.535034   -0.926384
      3          1           0       -0.769560   -0.535192    0.926332
      4          1           0       -0.769537    1.069812    0.000111
      5         35           0        1.739501    0.000005   -0.000002
      6         17           0       -3.184711    0.000011   -0.000005
 ---------------------------------------------------------------------
 Rotational constants (GHZ):         146.0491585           0.8397008           0.8396995
 Standard basis: CC-pVDZ (5D, 7F)
 There are    78 symmetry adapted cartesian basis functions of A   symmetry.
 There are    74 symmetry adapted basis functions of A   symmetry.
    74 basis functions,   272 primitive gaussians,    78 cartesian basis functions
    31 alpha electrons       31 beta electrons
       nuclear repulsion energy       171.1923451086 Hartrees.
 NAtoms=    6 NActive=    6 NUniq=    6 SFac= 1.00D+00 NAtFMM=   60 NAOKFM=F Big=F
 Integral buffers will be    131072 words long.
 Raffenetti 1 integral format.
 Two-electron integral symmetry is turned on.
 One-electron integrals computed using PRISM.
 NBasis=    74 RedAO= T EigKep=  2.38D-02  NBF=    74
 NBsUse=    74 1.00D-06 EigRej= -1.00D+00 NBFU=    74
 Initial guess from the checkpoint file:  "C:\Users\chemistry\Documents\Gruppe H\inputCC_ÜZ.chk"
 B after Tr=     0.000000    0.000000    0.000000
         Rot=    1.000000    0.000000    0.000000    0.000000 Ang=   0.00 deg.
 Keep R1 ints in memory in canonical form, NReq=4923094.
 Requested convergence on RMS density matrix=1.00D-08 within 128 cycles.
 Requested convergence on MAX density matrix=1.00D-06.
 Requested convergence on             energy=1.00D-06.
 No special actions if energy rises.
 SCF Done:  E(RHF) =  -3071.54900078     A.U. after    1 cycles
            NFock=  1  Conv=0.82D-09     -V/T= 2.0004
 Range of M.O.s used for correlation:     1    74
 NBasis=    74 NAE=    31 NBE=    31 NFC=     0 NFV=     0
 NROrb=     74 NOA=    31 NOB=    31 NVA=    43 NVB=    43
          Differentiating once with respect to electric field.
                with respect to dipole field.
          Electric field/nuclear overlap derivatives assumed to be zero.
 Keep R1 ints in memory in canonical form, NReq=4921904.
          There are     3 degrees of freedom in the 1st order CPHF.  IDoFFX=0 NUNeed=     3.
      3 vectors produced by pass  0 Test12= 4.44D-14 3.33D-08 XBig12= 3.26D+01 5.35D+00.
 AX will form     3 AO Fock derivatives at one time.
      3 vectors produced by pass  1 Test12= 4.44D-14 3.33D-08 XBig12= 1.41D+00 3.29D-01.
      3 vectors produced by pass  2 Test12= 4.44D-14 3.33D-08 XBig12= 8.32D-02 8.65D-02.
      3 vectors produced by pass  3 Test12= 4.44D-14 3.33D-08 XBig12= 4.23D-03 2.06D-02.
      3 vectors produced by pass  4 Test12= 4.44D-14 3.33D-08 XBig12= 3.39D-04 8.72D-03.
      3 vectors produced by pass  5 Test12= 4.44D-14 3.33D-08 XBig12= 1.06D-05 8.17D-04.
      3 vectors produced by pass  6 Test12= 4.44D-14 3.33D-08 XBig12= 8.40D-07 3.85D-04.
      3 vectors produced by pass  7 Test12= 4.44D-14 3.33D-08 XBig12= 3.47D-08 8.04D-05.
      3 vectors produced by pass  8 Test12= 4.44D-14 3.33D-08 XBig12= 5.02D-10 5.47D-06.
      3 vectors produced by pass  9 Test12= 4.44D-14 3.33D-08 XBig12= 1.96D-11 1.39D-06.
      1 vectors produced by pass 10 Test12= 4.44D-14 3.33D-08 XBig12= 9.09D-13 2.78D-07.
 InvSVY:  IOpt=1 It=  1 EMax= 8.88D-16
 Solved reduced A of dimension    31 with     3 vectors.
 End of Minotr F.D. properties file   721 does not exist.
 End of Minotr F.D. properties file   722 does not exist.
 End of Minotr F.D. properties file   788 does not exist.
 Symmetrizing basis deriv contribution to polar:
 IMax=3 JMax=2 DiffMx= 0.00D+00
 G2DrvN: will do     7 centers at a time, making    1 passes.
 PxScal for G2LodP:  IOpCl= 0 ISclPx=1 IMOff=     1 NMtTot=     4 NTT=    2775 ScalPx= 4.31D+00
 Calling FoFCou, ICntrl=  3107 FMM=F I1Cent=   0 AccDes= 0.00D+00.
 End of G2Drv F.D. properties file   721 does not exist.
 End of G2Drv F.D. properties file   722 does not exist.
 End of G2Drv F.D. properties file   788 does not exist.
          IDoAtm=111111
          Differentiating once with respect to electric field.
                with respect to dipole field.
          Differentiating once with respect to nuclear coordinates.
 Keep R1 ints in memory in canonical form, NReq=4922042.
          There are    21 degrees of freedom in the 1st order CPHF.  IDoFFX=5 NUNeed=    21.
 Will reuse    3 saved solutions.
     15 vectors produced by pass  0 Test12= 6.35D-15 4.76D-09 XBig12= 4.94D-02 1.68D-01.
 AX will form    15 AO Fock derivatives at one time.
     15 vectors produced by pass  1 Test12= 6.35D-15 4.76D-09 XBig12= 7.83D-04 1.10D-02.
     15 vectors produced by pass  2 Test12= 6.35D-15 4.76D-09 XBig12= 6.32D-05 3.87D-03.
     15 vectors produced by pass  3 Test12= 6.35D-15 4.76D-09 XBig12= 1.95D-06 8.47D-04.
     15 vectors produced by pass  4 Test12= 6.35D-15 4.76D-09 XBig12= 3.23D-08 8.78D-05.
     15 vectors produced by pass  5 Test12= 6.35D-15 4.76D-09 XBig12= 2.90D-10 6.00D-06.
     12 vectors produced by pass  6 Test12= 6.35D-15 4.76D-09 XBig12= 7.48D-13 2.46D-07.
      3 vectors produced by pass  7 Test12= 6.35D-15 4.76D-09 XBig12= 6.15D-15 2.52D-08.
 InvSVY:  IOpt=1 It=  1 EMax= 1.55D-15
 Solved reduced A of dimension   105 with    15 vectors.
 Isotropic polarizability for W=    0.000000       48.57 Bohr**3.
 End of Minotr F.D. properties file   721 does not exist.
 End of Minotr F.D. properties file   722 does not exist.
 End of Minotr F.D. properties file   788 does not exist.

 **********************************************************************

            Population analysis using the SCF Density.

 **********************************************************************

 Orbital symmetries:
       Occupied  (A) (A) (A) (A) (A) (A) (A) (A) (A) (A) (A) (A)
                 (A) (A) (A) (A) (A) (A) (A) (A) (A) (A) (A) (A)
                 (A) (A) (A) (A) (A) (A) (A)
       Virtual   (A) (A) (A) (A) (A) (A) (A) (A) (A) (A) (A) (A)
                 (A) (A) (A) (A) (A) (A) (A) (A) (A) (A) (A) (A)
                 (A) (A) (A) (A) (A) (A) (A) (A) (A) (A) (A) (A)
                 (A) (A) (A) (A) (A) (A) (A)
 The electronic state is 1-A.
 Alpha  occ. eigenvalues -- -489.83906-104.56305 -64.97422 -58.33085 -58.33037
 Alpha  occ. eigenvalues --  -58.33037 -11.19094 -10.28607  -9.61915  -7.75270
 Alpha  occ. eigenvalues --   -7.75161  -7.75161  -7.22876  -7.22556  -7.22556
 Alpha  occ. eigenvalues --   -2.96419  -2.96271  -2.96271  -2.95914  -2.95914
 Alpha  occ. eigenvalues --   -0.84868  -0.78900  -0.73854  -0.48647  -0.48638
 Alpha  occ. eigenvalues --   -0.26597  -0.21267  -0.21267  -0.20286  -0.20286
 Alpha  occ. eigenvalues --   -0.17864
 Alpha virt. eigenvalues --    0.26915   0.33192   0.39445   0.39445   0.72230
 Alpha virt. eigenvalues --    0.72243   0.81903   0.88727   0.91221   0.92537
 Alpha virt. eigenvalues --    0.92538   0.95417   0.95419   0.98157   0.98159
 Alpha virt. eigenvalues --    0.98368   1.02635   1.02637   1.04208   1.04210
 Alpha virt. eigenvalues --    1.07493   1.12227   1.20259   1.23783   1.23784
 Alpha virt. eigenvalues --    1.24671   1.24671   1.40524   1.40529   1.53424
 Alpha virt. eigenvalues --    1.65374   1.73971   1.91494   1.91512   1.94306
 Alpha virt. eigenvalues --    2.24926   2.24955   2.34980   2.52181   2.52209
 Alpha virt. eigenvalues --    2.95017   2.98639   2.98652
          Condensed to atoms (all electrons):
               1          2          3          4          5          6
     1  C    4.492454   0.422806   0.422805   0.422812   0.074365   0.051843
     2  H    0.422806   0.508502  -0.016828  -0.016813  -0.012510  -0.007326
     3  H    0.422805  -0.016828   0.508504  -0.016813  -0.012509  -0.007325
     4  H    0.422812  -0.016813  -0.016813   0.508456  -0.012517  -0.007330
     5  Br   0.074365  -0.012510  -0.012509  -0.012517  35.669003   0.003132
     6  Cl   0.051843  -0.007326  -0.007325  -0.007330   0.003132  17.737497
 Mulliken charges:
               1
     1  C    0.112915
     2  H    0.122169
     3  H    0.122167
     4  H    0.122204
     5  Br  -0.708965
     6  Cl  -0.770491
 Sum of Mulliken charges =  -1.00000
 Mulliken charges with hydrogens summed into heavy atoms:
               1
     1  C    0.479455
     5  Br  -0.708965
     6  Cl  -0.770491
 APT charges:
               1
     1  C    1.307301
     2  H   -0.020344
     3  H   -0.020342
     4  H   -0.020332
     5  Br  -1.090613
     6  Cl  -1.155670
 Sum of APT charges =  -1.00000
 APT charges with hydrogens summed into heavy atoms:
               1
     1  C    1.246283
     5  Br  -1.090613
     6  Cl  -1.155670
 Electronic spatial extent (au):  <R**2>=           1151.4187
 Charge=             -1.0000 electrons
 Dipole moment (field-independent basis, Debye):
    X=              4.1147    Y=             -0.0002    Z=              0.0001  Tot=              4.1147
 Quadrupole moment (field-independent basis, Debye-Ang):
   XX=            -88.1830   YY=            -41.4476   ZZ=            -41.4494
   XY=              0.0003   XZ=             -0.0001   YZ=              0.0000
 Traceless Quadrupole moment (field-independent basis, Debye-Ang):
   XX=            -31.1563   YY=             15.5791   ZZ=             15.5773
   XY=              0.0003   XZ=             -0.0001   YZ=              0.0000
 Octapole moment (field-independent basis, Debye-Ang**2):
  XXX=            150.5204  YYY=              1.1209  ZZZ=             -0.0003  XYY=             15.2241
  XXY=             -0.0005  XXZ=              0.0001  XZZ=             15.2254  YZZ=             -1.1214
  YYZ=              0.0003  XYZ=              0.0000
 Hexadecapole moment (field-independent basis, Debye-Ang**3):
 XXXX=          -1717.0624 YYYY=            -53.9820 ZZZZ=            -53.9826 XXXY=              0.0016
 XXXZ=             -0.0006 YYYX=             -0.8689 YYYZ=              0.0000 ZZZX=              0.0000
 ZZZY=             -0.0001 XXYY=           -234.3198 XXZZ=           -234.3204 YYZZ=            -17.9935
 XXYZ=              0.0000 YYXZ=             -0.0003 ZZXY=              0.8698
 N-N= 1.711923451086D+02 E-N=-7.696270689888D+03  KE= 3.070452987955D+03
  Exact polarizability:      95.689       0.000      25.004       0.000       0.000      25.002
 Approx polarizability:      69.091       0.000      25.681       0.000       0.000      25.679
 Calling FoFJK, ICntrl=    100127 FMM=F ISym2X=0 I1Cent= 0 IOpClX= 0 NMat=1 NMatS=1 NMatT=0.
 Full mass-weighted force constant matrix:
 Low frequencies --- -386.5416  -21.0401   -0.0184   -0.0172   -0.0141    1.9169
 Low frequencies ---    2.2930  174.2451  183.1354
 ******    1 imaginary frequencies (negative Signs) ****** 
 Diagonal vibrational polarizability:
      229.2278960      15.5968470      15.5969314
 Diagonal vibrational hyperpolarizability:
     -290.1084142       0.4493769       0.0052749
 Harmonic frequencies (cm**-1), IR intensities (KM/Mole), Raman scattering
 activities (A**4/AMU), depolarization ratios for plane and unpolarized
 incident light, reduced masses (AMU), force constants (mDyne/A),
 and normal coordinates:
                      1                      2                      3
                      A                      A                      A
 Frequencies --   -386.5416               174.2451               183.1354
 Red. masses --     11.8978                37.8075                 4.2037
 Frc consts  --      1.0474                 0.6763                 0.0831
 IR Inten    --   1222.5529                 3.6048                19.2962
 Raman Activ --      4.3636                 6.2161                 0.0212
 Depolar (P) --      0.3125                 0.3192                 0.7500
 Depolar (U) --      0.4762                 0.4839                 0.8571
  Atom  AN      X      Y      Z        X      Y      Z        X      Y      Z
     1   6     0.93   0.00   0.00     0.18   0.00   0.00     0.00  -0.04   0.49
     2   1     0.18   0.01   0.01     0.19   0.00   0.01    -0.01  -0.04   0.50
     3   1     0.18   0.01  -0.01     0.19   0.00  -0.01     0.01  -0.04   0.50
     4   1     0.18  -0.02   0.00     0.19  -0.01   0.00     0.00  -0.04   0.50
     5  35    -0.08   0.00   0.00    -0.40   0.00   0.00     0.00   0.00  -0.05
     6  17    -0.16   0.00   0.00     0.84   0.00   0.00     0.00   0.01  -0.11
                      4                      5                      6
                      A                      A                      A
 Frequencies --    183.1418               937.0275               937.1323
 Red. masses --      4.2037                 1.0115                 1.0115
 Frc consts  --      0.0831                 0.5232                 0.5234
 IR Inten    --     19.2975                 0.0706                 0.0705
 Raman Activ --      0.0212                 4.0523                 4.0509
 Depolar (P) --      0.7499                 0.7500                 0.7500
 Depolar (U) --      0.8571                 0.8571                 0.8571
  Atom  AN      X      Y      Z        X      Y      Z        X      Y      Z
     1   6     0.00   0.49   0.04     0.00   0.00  -0.01     0.00  -0.01   0.00
     2   1    -0.01   0.50   0.04    -0.69   0.00   0.01    -0.43   0.02   0.00
     3   1    -0.01   0.50   0.04     0.72   0.00   0.01    -0.39   0.02   0.00
     4   1     0.01   0.50   0.04    -0.02   0.00   0.02     0.82   0.01   0.00
     5  35     0.00  -0.05   0.00     0.00   0.00   0.00     0.00   0.00   0.00
     6  17     0.00  -0.11  -0.01     0.00   0.00  -0.01     0.00  -0.01   0.00
                      7                      8                      9
                      A                      A                      A
 Frequencies --   1144.3906              1502.4510              1502.7759
 Red. masses --      1.0417                 1.1007                 1.1007
 Frc consts  --      0.8038                 1.4640                 1.4646
 IR Inten    --    284.0613                 7.2006                 7.1909
 Raman Activ --      0.0922                 2.4883                 2.4944
 Depolar (P) --      0.6256                 0.7500                 0.7500
 Depolar (U) --      0.7697                 0.8571                 0.8571
  Atom  AN      X      Y      Z        X      Y      Z        X      Y      Z
     1   6    -0.04   0.00   0.00     0.00   0.00  -0.09     0.00  -0.09   0.00
     2   1     0.58  -0.01  -0.01     0.02  -0.39   0.14     0.01   0.58  -0.39
     3   1     0.58  -0.01   0.01    -0.02   0.39   0.14     0.01   0.58   0.39
     4   1     0.58   0.01   0.00     0.00   0.00   0.81    -0.03  -0.09   0.00
     5  35    -0.01   0.00   0.00     0.00   0.00   0.00     0.00   0.00   0.00
     6  17    -0.02   0.00   0.00     0.00   0.00   0.00     0.00   0.00   0.00
                     10                     11                     12
                      A                      A                      A
 Frequencies --   3373.6798              3600.3748              3600.6233
 Red. masses --      1.0080                 1.1245                 1.1245
 Frc consts  --      6.7593                 8.5881                 8.5897
 IR Inten    --      0.0856                12.3965                12.4387
 Raman Activ --     93.6164                19.7462                19.7186
 Depolar (P) --      0.0066                 0.7500                 0.7500
 Depolar (U) --      0.0132                 0.8571                 0.8571
  Atom  AN      X      Y      Z        X      Y      Z        X      Y      Z
     1   6     0.00   0.00   0.00     0.00   0.00  -0.10     0.00  -0.10   0.00
     2   1    -0.01  -0.29  -0.50     0.02   0.35   0.61     0.01   0.20   0.36
     3   1    -0.01  -0.29   0.50    -0.02  -0.36   0.61     0.01   0.20  -0.35
     4   1    -0.01   0.58   0.00     0.00   0.00  -0.01    -0.02   0.81   0.00
     5  35     0.00   0.00   0.00     0.00   0.00   0.00     0.00   0.00   0.00
     6  17     0.00   0.00   0.00     0.00   0.00   0.00     0.00   0.00   0.00

 -------------------
 - Thermochemistry -
 -------------------
 Temperature   298.150 Kelvin.  Pressure   1.00000 Atm.
 Atom     1 has atomic number  6 and mass  12.00000
 Atom     2 has atomic number  1 and mass   1.00783
 Atom     3 has atomic number  1 and mass   1.00783
 Atom     4 has atomic number  1 and mass   1.00783
 Atom     5 has atomic number 35 and mass  78.91834
 Atom     6 has atomic number 17 and mass  34.96885
 Molecular mass:   128.91066 amu.
 Principal axes and moments of inertia in atomic units:
                           1         2         3
     Eigenvalues --    12.357082149.267012149.27029
           X            1.00000   0.00000   0.00000
           Y            0.00000   1.00000   0.00000
           Z            0.00000   0.00000   1.00000
 This molecule is an asymmetric top.
 Rotational symmetry number  1.
 Rotational temperatures (Kelvin)      7.00925     0.04030     0.04030
 Rotational constants (GHZ):         146.04916     0.83970     0.83970
    1 imaginary frequencies ignored.
 Zero-point vibrational energy     102513.9 (Joules/Mol)
                                   24.50140 (Kcal/Mol)
 Warning -- explicit consideration of   3 degrees of freedom as
           vibrations may cause significant error
 Vibrational temperatures:    250.70   263.49   263.50  1348.17  1348.32
          (Kelvin)           1646.52  2161.69  2162.16  4853.97  5180.14
                             5180.49
 
 Zero-point correction=                           0.039045 (Hartree/Particle)
 Thermal correction to Energy=                    0.043780
 Thermal correction to Enthalpy=                  0.044724
 Thermal correction to Gibbs Free Energy=         0.009887
 Sum of electronic and zero-point Energies=          -3071.509955
 Sum of electronic and thermal Energies=             -3071.505221
 Sum of electronic and thermal Enthalpies=           -3071.504277
 Sum of electronic and thermal Free Energies=        -3071.539114
 
                     E (Thermal)             CV                S
                      KCal/Mol        Cal/Mol-Kelvin    Cal/Mol-Kelvin
 Total                   27.472             12.857             73.321
 Electronic               0.000              0.000              0.000
 Translational            0.889              2.981             40.475
 Rotational               0.889              2.981             25.549
 Vibrational             25.695              6.895              7.298
 Vibration     1          0.627              1.874              2.389
 Vibration     2          0.631              1.863              2.296
 Vibration     3          0.631              1.863              2.296
                       Q            Log10(Q)             Ln(Q)
 Total Bot       0.283387D-04         -4.547620        -10.471283
 Total V=0       0.258244D+14         13.412030         30.882341
 Vib (Bot)       0.575968D-17        -17.239602        -39.695650
 Vib (Bot)    1  0.115494D+01          0.062561          0.144052
 Vib (Bot)    2  0.109554D+01          0.039627          0.091244
 Vib (Bot)    3  0.109550D+01          0.039611          0.091207
 Vib (V=0)       0.524867D+01          0.720049          1.657974
 Vib (V=0)    1  0.175853D+01          0.245150          0.564478
 Vib (V=0)    2  0.170424D+01          0.231531          0.533121
 Vib (V=0)    3  0.170421D+01          0.231522          0.533099
 Electronic      0.100000D+01          0.000000          0.000000
 Translational   0.575290D+08          7.759887         17.867800
 Rotational      0.855252D+05          4.932094         11.356567
 ***** Axes restored to original set *****
 -------------------------------------------------------------------
 Center     Atomic                   Forces (Hartrees/Bohr)
 Number     Number              X              Y              Z
 -------------------------------------------------------------------
      1        6           0.000124487   -0.000062306   -0.000013386
      2        1          -0.000078449    0.000003852    0.000050003
      3        1          -0.000078443    0.000025141   -0.000043532
      4        1          -0.000075452    0.000033309    0.000007675
      5       35           0.000102367   -0.000000252   -0.000000438
      6       17           0.000005490    0.000000257   -0.000000322
 -------------------------------------------------------------------
 Cartesian Forces:  Max     0.000124487 RMS     0.000054913
 FormGI is forming the generalized inverse of G from B-inverse, IUseBI=4.

 GradGradGradGradGradGradGradGradGradGradGradGradGradGradGradGradGradGrad
 Berny optimization.
 Internal  Forces:  Max     0.000102367 RMS     0.000034408
 Search for a saddle point.
 Step number   1 out of a maximum of    2
 All quantities printed in internal units (Hartrees-Bohrs-Radians)
 Swapping is turned off.
 Second derivative matrix not updated -- analytic derivatives used.
 ITU=  0
     Eigenvalues ---   -0.01811   0.03494   0.03497   0.05002   0.05004
     Eigenvalues ---    0.05354   0.05875   0.06977   0.06977   0.43420
     Eigenvalues ---    0.43996   0.44000
 Eigenvectors required to have negative eigenvalues:
                          R5        R4        D1        A9        A8
   1                   -0.59668   0.58099   0.45116   0.13067  -0.13066
                          A3        A4        A6        A7        A2
   1                   -0.13059   0.13058  -0.13058   0.13057   0.01384
 Angle between quadratic step and forces=  19.67 degrees.
 Linear search not attempted -- option 19 set.
 Iteration  1 RMS(Cart)=  0.00050155 RMS(Int)=  0.00000019
 Iteration  2 RMS(Cart)=  0.00000011 RMS(Int)=  0.00000014
 Variable       Old X    -DE/DX   Delta X   Delta X   Delta X     New X
                                 (Linear)    (Quad)   (Total)
    R1        2.02248   0.00003   0.00000   0.00005   0.00005   2.02253
    R2        2.02248   0.00003   0.00000   0.00005   0.00005   2.02253
    R3        2.02246   0.00003   0.00000   0.00007   0.00007   2.02253
    R4        4.68362  -0.00010   0.00000  -0.00168  -0.00168   4.68193
    R5        4.62179   0.00001   0.00000   0.00015   0.00015   4.62195
    A1        2.09251   0.00002   0.00000   0.00052   0.00052   2.09303
    A2        2.09322  -0.00001   0.00000  -0.00019  -0.00019   2.09303
    A3        1.59938  -0.00003   0.00000  -0.00047  -0.00047   1.59891
    A4        1.54219   0.00003   0.00000   0.00049   0.00049   1.54268
    A5        2.09322  -0.00001   0.00000  -0.00019  -0.00019   2.09303
    A6        1.59940  -0.00003   0.00000  -0.00049  -0.00049   1.59891
    A7        1.54221   0.00003   0.00000   0.00047   0.00047   1.54268
    A8        1.59937  -0.00002   0.00000  -0.00046  -0.00046   1.59891
    A9        1.54223   0.00002   0.00000   0.00046   0.00046   1.54268
   A10        3.14157   0.00000   0.00000   0.00002   0.00002   3.14159
   A11        3.14160   0.00000   0.00000  -0.00001  -0.00001   3.14159
    D1        3.04263   0.00009   0.00000   0.00166   0.00166   3.04430
    D2       -2.09392  -0.00002   0.00000  -0.00047  -0.00047  -2.09440
    D3        2.09392   0.00002   0.00000   0.00047   0.00047   2.09440
    D4        2.09463  -0.00001   0.00000  -0.00024  -0.00024   2.09439
    D5       -2.09463   0.00001   0.00000   0.00024   0.00024  -2.09439
    D6       -2.09463   0.00001   0.00000   0.00024   0.00024  -2.09439
    D7        2.09463  -0.00001   0.00000  -0.00024  -0.00024   2.09439
         Item               Value     Threshold  Converged?
 Maximum Force            0.000102     0.000450     YES
 RMS     Force            0.000034     0.000300     YES
 Maximum Displacement     0.001856     0.001800     NO 
 RMS     Displacement     0.000502     0.001200     YES
 Predicted change in Energy=-2.197830D-07
                           ----------------------------
                           ! Non-Optimized Parameters !
                           ! (Angstroms and Degrees)  !
 --------------------------                            --------------------------
 ! Name  Definition              Value          Derivative Info.                !
 --------------------------------------------------------------------------------
 ! R1    R(1,2)                  1.0703         -DE/DX =    0.0                 !
 ! R2    R(1,3)                  1.0703         -DE/DX =    0.0                 !
 ! R3    R(1,4)                  1.0703         -DE/DX =    0.0                 !
 ! R4    R(1,5)                  2.4776         -DE/DX =   -0.0001              !
 ! R5    R(1,6)                  2.4458         -DE/DX =    0.0                 !
 ! A1    A(2,1,3)              119.9216         -DE/DX =    0.0                 !
 ! A2    A(2,1,4)              119.9216         -DE/DX =    0.0                 !
 ! A3    A(2,1,5)               91.6107         -DE/DX =    0.0                 !
 ! A4    A(2,1,6)               88.3893         -DE/DX =    0.0                 !
 ! A5    A(3,1,4)              119.9216         -DE/DX =    0.0                 !
 ! A6    A(3,1,5)               91.6107         -DE/DX =    0.0                 !
 ! A7    A(3,1,6)               88.3893         -DE/DX =    0.0                 !
 ! A8    A(4,1,5)               91.6107         -DE/DX =    0.0                 !
 ! A9    A(4,1,6)               88.3893         -DE/DX =    0.0                 !
 ! A10   L(5,1,6,2,-1)         180.0            -DE/DX =    0.0                 !
 ! A11   L(5,1,6,2,-2)         180.0            -DE/DX =    0.0                 !
 ! D1    D(2,1,4,3)            174.4255         -DE/DX =    0.0001              !
 ! D2    D(2,1,5,3)           -120.0            -DE/DX =    0.0                 !
 ! D3    D(2,1,6,3)            120.0            -DE/DX =    0.0                 !
 ! D4    D(2,1,5,4)            120.0            -DE/DX =    0.0                 !
 ! D5    D(2,1,6,4)           -120.0            -DE/DX =    0.0                 !
 ! D6    D(3,1,5,4)           -120.0            -DE/DX =    0.0                 !
 ! D7    D(3,1,6,4)            120.0            -DE/DX =    0.0                 !
 --------------------------------------------------------------------------------
 GradGradGradGradGradGradGradGradGradGradGradGradGradGradGradGradGradGrad


 ----------------------------------------------------------------------

 Electric dipole moment (input orientation):
 (Debye = 10**-18 statcoulomb cm , SI units = C m)
                  (au)            (Debye)         (10**-30 SI)
   Tot        0.161885D+01      0.411471D+01      0.137252D+02
   x         -0.161885D+01     -0.411471D+01     -0.137252D+02
   y         -0.801163D-04     -0.203635D-03     -0.679254D-03
   z          0.641392D-04      0.163025D-03      0.543795D-03

 Dipole polarizability, Alpha (input orientation).
 (esu units = cm**3 , SI units = C**2 m**2 J**-1)
 Alpha(0;0):
               (au)            (10**-24 esu)      (10**-40 SI)
   iso        0.485651D+02      0.719660D+01      0.800730D+01
   aniso      0.706858D+02      0.104746D+02      0.116545D+02
   xx         0.956889D+02      0.141796D+02      0.157770D+02
   yx        -0.209715D-03     -0.310765D-04     -0.345773D-04
   yy         0.250038D+02      0.370518D+01      0.412257D+01
   zx        -0.472687D-02     -0.700449D-03     -0.779355D-03
   zy         0.320871D-03      0.475481D-04      0.529044D-04
   zz         0.250025D+02      0.370498D+01      0.412235D+01

 First dipole hyperpolarizability, Beta (input orientation).
 ||, _|_  parallel and perpendicular components, (z) with respect to z axis,
 vector components x,y,z.  Values do not include the 1/n! factor of 1/2.
 (esu units = statvolt**-1 cm**4 , SI units = C**3 m**3 J**-2)
 Beta(0;0,0):
               (au)            (10**-30 esu)      (10**-50 SI)
   || (z)    -0.834973D-02     -0.721352D-04     -0.267722D-04
   _|_(z)    -0.278324D-02     -0.240451D-04     -0.892408D-05
   x         -0.417852D+03     -0.360991D+01     -0.133978D+01
   y         -0.113150D+00     -0.977529D-03     -0.362800D-03
   z         -0.417486D-01     -0.360676D-03     -0.133861D-03
   ||         0.835703D+02      0.721982D+00      0.267957D+00
   xxx       -0.138012D+03     -0.119232D+01     -0.442517D+00
   xxy       -0.257766D-01     -0.222690D-03     -0.826492D-04
   yxy       -0.634853D+00     -0.548463D-02     -0.203557D-02
   yyy        0.162867D+02      0.140704D+00      0.522209D-01
   xxz       -0.104392D-01     -0.901869D-04     -0.334720D-04
   yxz       -0.974887D-03     -0.842226D-05     -0.312584D-05
   yyz        0.130665D+02      0.112884D+00      0.418959D-01
   zxz       -0.636834D+00     -0.550175D-02     -0.204192D-02
   zyz       -0.162986D+02     -0.140807D+00     -0.522592D-01
   zzz       -0.130700D+02     -0.112914D+00     -0.419071D-01

 ----------------------------------------------------------------------

 Dipole orientation:
     6          0.00048147          0.00028625         -1.39671220
     1          1.48096141         -1.37639690         -1.45450459
     1         -1.93172076         -0.59442402         -1.45445150
     1          0.45200864          1.97084371         -1.45460065
    35          0.00064369          0.00050104          3.28690418
    17          0.00040347          0.00003969         -6.01850692

 Electric dipole moment (dipole orientation):
 (Debye = 10**-18 statcoulomb cm , SI units = C m)
                  (au)            (Debye)         (10**-30 SI)
   Tot        0.161885D+01      0.411471D+01      0.137252D+02
   x          0.000000D+00      0.000000D+00      0.000000D+00
   y          0.000000D+00      0.000000D+00      0.000000D+00
   z          0.161885D+01      0.411471D+01      0.137252D+02

 Dipole polarizability, Alpha (dipole orientation).
 (esu units = cm**3 , SI units = C**2 m**2 J**-1)
 Alpha(0;0):
               (au)            (10**-24 esu)      (10**-40 SI)
   iso        0.485651D+02      0.719660D+01      0.800730D+01
   aniso      0.706858D+02      0.104746D+02      0.116545D+02
   xx         0.250025D+02      0.370498D+01      0.412235D+01
   yx         0.320892D-03      0.475513D-04      0.529080D-04
   yy         0.250038D+02      0.370518D+01      0.412257D+01
   zx         0.192605D-02      0.285412D-03      0.317563D-03
   zy         0.370801D-02      0.549470D-03      0.611367D-03
   zz         0.956889D+02      0.141796D+02      0.157770D+02

 First dipole hyperpolarizability, Beta (dipole orientation).
 ||, _|_  parallel and perpendicular components, (z) with respect to z axis,
 vector components x,y,z.  Values do not include the 1/n! factor of 1/2.
 (esu units = statvolt**-1 cm**4 , SI units = C**3 m**3 J**-2)
 Beta(0;0,0):
               (au)            (10**-30 esu)      (10**-50 SI)
   || (z)     0.835703D+02      0.721982D+00      0.267957D+00
   _|_(z)     0.278568D+02      0.240661D+00      0.893189D-01
   x         -0.582994D-01     -0.503662D-03     -0.186929D-03
   y         -0.924737D-01     -0.798901D-03     -0.296504D-03
   z          0.417852D+03      0.360991D+01      0.133978D+01
   ||         0.835703D+02      0.721982D+00      0.267957D+00
   xxx       -0.130676D+02     -0.112894D+00     -0.418996D-01
   xxy       -0.163005D+02     -0.140824D+00     -0.522653D-01
   yxy        0.130641D+02      0.112863D+00      0.418881D-01
   yyy        0.162887D+02      0.140722D+00      0.522274D-01
   xxz        0.637123D+00      0.550425D-02      0.204285D-02
   yxz       -0.317159D-03     -0.274001D-05     -0.101693D-05
   yyz        0.634562D+00      0.548212D-02      0.203464D-02
   zxz       -0.158559D-01     -0.136983D-03     -0.508398D-04
   zyz       -0.190100D-01     -0.164232D-03     -0.609530D-04
   zzz        0.138012D+03      0.119232D+01      0.442517D+00

 ----------------------------------------------------------------------
 Unable to Open any file for archive entry.
 1|1|UNPC-LAPTOP-PP56KN09|Freq|RHF|CC-pVDZ|C1H3Br1Cl1(1-)|CHEMISTRY|01-
 Dec-2022|0||#N Geom=AllCheck Guess=TCheck SCRF=Check GenChk RHF/CC-pVD
 Z Freq||Title Card Required||-1,1|C,0.7391082686,0.0001880414,0.000225
 5081|H,0.7697577753,-0.7283585602,0.7836244877|H,0.7696376513,-0.31446
 69641,-1.0222686634|H,0.7696993806,1.042951834,0.2392137869|Br,-1.7393
 547843,0.0001790405,0.0004095551|Cl,3.1848567086,0.0001786084,0.000087
 3256||Version=EM64W-G16RevC.01|State=1-A|HF=-3071.5490008|RMSD=8.245e-
 010|RMSF=5.491e-005|ZeroPoint=0.0390455|Thermal=0.04378|ETot=-3071.505
 2208|HTot=-3071.5042766|GTot=-3071.539114|Dipole=-1.61885,-0.0000801,0
 .0000641|DipoleDeriv=3.7794967,0.0000008,-0.0002458,0.0000043,0.071134
 6,-0.0000305,-0.0002435,-0.0000305,0.0712727,-0.2575858,0.0011047,-0.0
 01171,-0.0128387,0.0977696,-0.0070942,0.0138285,-0.0071415,0.0987834,-
 0.257578,0.0004749,0.0015814,-0.0055443,0.092381,0.0039959,-0.0179927,
 0.0040419,0.1041706,-0.2577159,-0.0015823,-0.0003393,0.0183773,0.10483
 72,0.0031322,0.0042353,0.0031334,0.091882,-1.9673267,0.0000072,0.00009
 19,-0.0000074,-0.6522603,-0.0000019,0.0000988,-0.0000019,-0.6522523,-2
 .0392903,-0.0000052,0.0000827,0.0000087,-0.7138621,-0.0000014,0.000073
 7,-0.0000014,-0.7138564|Polar=95.6889328,-0.0002097,25.0037898,-0.0047
 269,0.0003209,25.0024637|PolarDeriv=7.8319268,0.001214,-0.1259272,0.00
 01923,0.0001165,-0.1256232,0.0015648,-0.0543594,-2.0342863,0.0000748,-
 1.6335999,2.0378254,-0.0001671,0.0000749,-1.6338478,-0.0538968,2.03909
 45,1.6346359,0.0719384,-0.842549,0.1217627,0.9062592,-0.0619726,0.1307
 132,-1.6042684,0.4289,-2.8015788,-0.2473384,1.8799134,-1.6566248,1.724
 9906,-0.2473618,1.5979094,0.4648033,-1.9192326,3.195445,0.0714519,-0.3
 637606,0.074765,-1.1828005,0.0348486,0.1772507,-0.6928364,0.2416125,-0
 .8270844,0.1393864,-1.2084351,-1.0986456,-2.2513239,0.139311,-0.840165
 3,0.6517254,-1.2121887,-5.4166206,0.071436,1.2056693,0.1819798,0.27629
 45,0.0270065,0.0702514,2.2948144,0.6699791,5.6460902,0.1078722,0.94865
 06,0.7340147,0.5259278,0.1079709,0.8628353,0.2235155,1.108675,0.599354
 8,-16.9049582,-0.0002521,-0.221281,0.0003627,0.0000004,-0.2212881,0.00
 03584,-8.6298139,0.0051844,0.0000253,0.0046399,-0.005004,0.0001199,0.0
 000253,0.0040158,-8.6299464,-0.0048861,-0.0027106,8.858205,-0.0003217,
 -0.0312994,-0.0003082,0.0000007,-0.031304,0.0003671,7.3436817,0.011675
 ,-0.0000204,0.0088312,-0.0115657,0.0004526,-0.0000203,0.0092526,7.3437
 99,-0.0114621,-0.0101045|HyperPolar=-138.0121574,-0.0257766,-0.6348528
 ,16.2866607,-0.0104392,-0.0009749,13.0665002,-0.6368336,-16.2986007,-1
 3.0699772|Quadrupole=-23.163957,11.5825782,11.5813787,-0.0001488,0.002
 1987,0.0002879|PG=C01 [X(C1H3Br1Cl1)]|NImag=1||-0.04701667,-0.00000652
 ,0.77229532,0.00005274,0.00007333,0.77198986,-0.01487573,0.00762890,-0
 .00820918,0.03862750,0.00681874,-0.23552555,0.18368656,-0.00705040,0.2
 3044925,-0.00733666,0.18367035,-0.26222979,0.00758283,-0.19233973,0.25
 844794,-0.01487498,0.00328156,0.01066642,0.00489127,-0.00030488,-0.001
 07886,0.03862471,0.00293227,-0.09657358,-0.10354352,-0.00074189,0.0115
 9779,0.02071131,-0.00303197,0.08495176,0.00952812,-0.10352731,-0.40118
 313,0.00083682,-0.01022573,-0.01007607,-0.00985342,0.10840392,0.403946
 92,-0.01485290,-0.01090343,-0.00250222,0.00488349,0.00109874,0.0002261
 2,0.00488353,0.00108423,0.00027445,0.03862184,-0.00974340,-0.41470900,
 -0.08021576,-0.00078147,-0.00917068,-0.00870701,-0.00035294,-0.0001023
 1,0.00346966,0.01007351,0.41808171,-0.00223638,-0.08021575,-0.08309291
 ,0.00080353,0.02221390,0.01072337,-0.00106327,-0.02745151,0.00165507,0
 .00230959,0.08399746,0.07083237,0.04592654,0.00000004,-0.00000415,-0.0
 1750064,-0.00254403,0.00273806,-0.01749925,-0.00109802,-0.00356986,-0.
 01750630,0.00364239,0.00083599,0.03278627,0.00000031,-0.01363925,-0.00
 000039,0.00540890,0.00146140,-0.00177416,0.00233474,0.00011946,0.00099
 955,-0.00774362,0.00319064,0.00077486,-0.00000044,0.00703433,-0.000004
 64,-0.00000039,-0.01363736,-0.00581808,-0.00177381,0.00171970,0.007595
 73,0.00100001,0.00306109,-0.00177343,0.00077405,-0.00001039,-0.0000016
 5,0.00000015,0.00703354,0.04569373,-0.00000054,-0.00000361,-0.01602590
 ,0.00198184,-0.00213149,-0.01602529,0.00085538,0.00278389,-0.01602967,
 -0.00283810,-0.00064947,-0.02620662,0.00000010,0.00000207,0.02859375,-
 0.00000139,-0.01184793,-0.00000023,-0.00446404,0.00118780,-0.00156076,
 -0.00192650,0.00000689,0.00087992,0.00639056,0.00270964,0.00068103,0.0
 0000005,0.00183342,0.,0.00000132,0.00611017,-0.00000318,-0.00000023,-0
 .01184668,0.00480408,-0.00156119,0.00141485,-0.00626659,0.00087979,0.0
 0259611,0.00146549,0.00068160,-0.00010752,0.00000160,0.,0.00183341,-0.
 00000140,0.00000004,0.00610983||-0.00012449,0.00006231,0.00001339,0.00
 007845,-0.00000385,-0.00005000,0.00007844,-0.00002514,0.00004353,0.000
 07545,-0.00003331,-0.00000768,-0.00010237,0.00000025,0.00000044,-0.000
 00549,-0.00000026,0.00000032|||@
 The archive entry for this job was punched.


 YOU SHOULDN'T LET PEOPLE DRIVE YOU CRAZY
 WHEN YOU KNOW IT'S WITHIN WALKING DISTANCE.
 Job cpu time:       0 days  0 hours  0 minutes 13.0 seconds.
 Elapsed time:       0 days  0 hours  0 minutes 12.3 seconds.
 File lengths (MBytes):  RWF=      9 Int=      0 D2E=      0 Chk=      2 Scr=      1
 Normal termination of Gaussian 16 at Thu Dec 01 12:54:34 2022.
