 Entering Link 1 = C:\G16W\l1.exe PID=     10932.
  
 Copyright (c) 1988-2019, Gaussian, Inc.  All Rights Reserved.
  
 This is part of the Gaussian(R) 16 program.  It is based on
 the Gaussian(R) 09 system (copyright 2009, Gaussian, Inc.),
 the Gaussian(R) 03 system (copyright 2003, Gaussian, Inc.),
 the Gaussian(R) 98 system (copyright 1998, Gaussian, Inc.),
 the Gaussian(R) 94 system (copyright 1995, Gaussian, Inc.),
 the Gaussian 92(TM) system (copyright 1992, Gaussian, Inc.),
 the Gaussian 90(TM) system (copyright 1990, Gaussian, Inc.),
 the Gaussian 88(TM) system (copyright 1988, Gaussian, Inc.),
 the Gaussian 86(TM) system (copyright 1986, Carnegie Mellon
 University), and the Gaussian 82(TM) system (copyright 1983,
 Carnegie Mellon University). Gaussian is a federally registered
 trademark of Gaussian, Inc.
  
 This software contains proprietary and confidential information,
 including trade secrets, belonging to Gaussian, Inc.
  
 This software is provided under written license and may be
 used, copied, transmitted, or stored only in accord with that
 written license.
  
 The following legend is applicable only to US Government
 contracts under FAR:
  
                    RESTRICTED RIGHTS LEGEND
  
 Use, reproduction and disclosure by the US Government is
 subject to restrictions as set forth in subparagraphs (a)
 and (c) of the Commercial Computer Software - Restricted
 Rights clause in FAR 52.227-19.
  
 Gaussian, Inc.
 340 Quinnipiac St., Bldg. 40, Wallingford CT 06492
  
  
 ---------------------------------------------------------------
 Warning -- This program may not be used in any manner that
 competes with the business of Gaussian, Inc. or will provide
 assistance to any competitor of Gaussian, Inc.  The licensee
 of this program is prohibited from giving any competitor of
 Gaussian, Inc. access to this program.  By using this program,
 the user acknowledges that Gaussian, Inc. is engaged in the
 business of creating and licensing software in the field of
 computational chemistry and represents and warrants to the
 licensee that it is not a competitor of Gaussian, Inc. and that
 it will not use this program in any manner prohibited above.
 ---------------------------------------------------------------
  

 Cite this work as:
 Gaussian 16, Revision C.01,
 M. J. Frisch, G. W. Trucks, H. B. Schlegel, G. E. Scuseria, 
 M. A. Robb, J. R. Cheeseman, G. Scalmani, V. Barone, 
 G. A. Petersson, H. Nakatsuji, X. Li, M. Caricato, A. V. Marenich, 
 J. Bloino, B. G. Janesko, R. Gomperts, B. Mennucci, H. P. Hratchian, 
 J. V. Ortiz, A. F. Izmaylov, J. L. Sonnenberg, D. Williams-Young, 
 F. Ding, F. Lipparini, F. Egidi, J. Goings, B. Peng, A. Petrone, 
 T. Henderson, D. Ranasinghe, V. G. Zakrzewski, J. Gao, N. Rega, 
 G. Zheng, W. Liang, M. Hada, M. Ehara, K. Toyota, R. Fukuda, 
 J. Hasegawa, M. Ishida, T. Nakajima, Y. Honda, O. Kitao, H. Nakai, 
 T. Vreven, K. Throssell, J. A. Montgomery, Jr., J. E. Peralta, 
 F. Ogliaro, M. J. Bearpark, J. J. Heyd, E. N. Brothers, K. N. Kudin, 
 V. N. Staroverov, T. A. Keith, R. Kobayashi, J. Normand, 
 K. Raghavachari, A. P. Rendell, J. C. Burant, S. S. Iyengar, 
 J. Tomasi, M. Cossi, J. M. Millam, M. Klene, C. Adamo, R. Cammi, 
 J. W. Ochterski, R. L. Martin, K. Morokuma, O. Farkas, 
 J. B. Foresman, and D. J. Fox, Gaussian, Inc., Wallingford CT, 2019.
 
 ******************************************
 Gaussian 16:  EM64W-G16RevC.01 30-May-2019
                01-Dec-2022 
 ******************************************
 %chk=C:\Users\chemistry\Documents\Gruppe H\inputOptimierung.chk
 ---------------------------------------------------
 # opt=modredundant freq hf/sto-3g geom=connectivity
 ---------------------------------------------------
 1/18=120,19=15,38=1,57=2/1,3;
 2/9=110,12=2,17=6,18=5,40=1/2;
 3/6=3,11=9,25=1,30=1,71=1/1,2,3;
 4//1;
 5/5=2,38=5/2;
 6/7=2,8=2,9=2,10=2,28=1/1;
 7//1,2,3,16;
 1/18=20,19=15/3(2);
 2/9=110/2;
 99//99;
 2/9=110/2;
 3/6=3,11=9,25=1,30=1,71=1/1,2,3;
 4/5=5,16=3,69=1/1;
 5/5=2,38=5/2;
 7//1,2,3,16;
 1/18=20,19=15/3(-5);
 2/9=110/2;
 6/7=2,8=2,9=2,10=2,19=2,28=1/1;
 99/9=1/99;
 -------------------
 Title Card Required
 -------------------
 Symbolic Z-matrix:
 Charge = -1 Multiplicity = 1
 C                     0.        0.33936   0. 
 H                     0.51385   0.63408   0.8895 
 H                     0.51385   0.63408  -0.8895 
 H                    -1.02681   0.6357    0. 
 Br                   -0.00229  -1.73455   0. 
 Cl                    0.00466   3.33936   0. 
 
 Add virtual bond connecting atoms Br5        and C1         Dist= 3.92D+00.
 Add virtual bond connecting atoms Cl6        and C1         Dist= 5.67D+00.
 Add virtual bond connecting atoms Cl6        and H2         Dist= 5.47D+00.
 Add virtual bond connecting atoms Cl6        and H3         Dist= 5.47D+00.
 Add virtual bond connecting atoms Cl6        and H4         Dist= 5.47D+00.
 The following ModRedundant input section has been read:
 B       1       6 S  15 -0.100                                                
 

 GradGradGradGradGradGradGradGradGradGradGradGradGradGradGradGradGradGrad
 Berny optimization.
 Initialization pass.
                           ----------------------------
                           !    Initial Parameters    !
                           ! (Angstroms and Degrees)  !
 --------------------------                            --------------------------
 ! Name  Definition              Value          Derivative Info.                !
 --------------------------------------------------------------------------------
 ! R1    R(1,2)                  1.0687         estimate D2E/DX2                !
 ! R2    R(1,3)                  1.0687         estimate D2E/DX2                !
 ! R3    R(1,4)                  1.0687         estimate D2E/DX2                !
 ! R4    R(1,5)                  2.0739         estimate D2E/DX2                !
 ! R5    R(1,6)                  3.0            Scan                            !
 ! R6    R(2,6)                  2.8929         estimate D2E/DX2                !
 ! R7    R(3,6)                  2.8929         estimate D2E/DX2                !
 ! R8    R(4,6)                  2.8937         estimate D2E/DX2                !
 ! A1    A(2,1,3)              112.6764         estimate D2E/DX2                !
 ! A2    A(2,1,4)              112.6745         estimate D2E/DX2                !
 ! A3    A(2,1,5)              106.0398         estimate D2E/DX2                !
 ! A4    A(3,1,4)              112.6745         estimate D2E/DX2                !
 ! A5    A(3,1,5)              106.0398         estimate D2E/DX2                !
 ! A6    A(4,1,5)              106.035          estimate D2E/DX2                !
 ! A7    A(2,6,3)               35.8144         estimate D2E/DX2                !
 ! A8    A(2,6,4)               35.8091         estimate D2E/DX2                !
 ! A9    A(3,6,4)               35.8091         estimate D2E/DX2                !
 ! A10   L(5,1,6,2,-1)         179.9871         estimate D2E/DX2                !
 ! A11   L(5,1,6,2,-2)         179.9768         estimate D2E/DX2                !
 ! D1    D(2,1,4,3)            128.8559         estimate D2E/DX2                !
 ! D2    D(2,1,5,3)           -120.003          estimate D2E/DX2                !
 ! D3    D(2,1,5,4)            119.9985         estimate D2E/DX2                !
 ! D4    D(3,1,5,4)           -119.9985         estimate D2E/DX2                !
 ! D5    D(3,2,6,1)             31.6904         estimate D2E/DX2                !
 ! D6    D(4,2,6,1)            -31.7018         estimate D2E/DX2                !
 ! D7    D(4,3,6,1)             31.7018         estimate D2E/DX2                !
 --------------------------------------------------------------------------------
 Trust Radius=3.00D-01 FncErr=1.00D-07 GrdErr=1.00D-07 EigMax=2.50D+02 EigMin=1.00D-04
 Number of optimizations in scan=  16
 Number of steps in this run=     36 maximum allowed number of steps=    100.
 GradGradGradGradGradGradGradGradGradGradGradGradGradGradGradGradGradGrad

                          Input orientation:                          
 ---------------------------------------------------------------------
 Center     Atomic      Atomic             Coordinates (Angstroms)
 Number     Number       Type             X           Y           Z
 ---------------------------------------------------------------------
      1          6           0        0.000000    0.339363    0.000000
      2          1           0        0.513850    0.634082    0.889504
      3          1           0        0.513850    0.634082   -0.889504
      4          1           0       -1.026812    0.635703    0.000000
      5         35           0       -0.002291   -1.734545    0.000000
      6         17           0        0.004664    3.339355    0.000000
 ---------------------------------------------------------------------
                    Distance matrix (angstroms):
                    1          2          3          4          5
     1  C    0.000000
     2  H    1.068699   0.000000
     3  H    1.068699   1.779008   0.000000
     4  H    1.068719   1.779005   1.779005   0.000000
     5  Br   2.073909   2.582250   2.582250   2.582193   0.000000
     6  Cl   2.999996   2.892921   2.892921   2.893731   5.073905
                    6
     6  Cl   0.000000
 This structure is nearly, but not quite of a higher symmetry.
 Consider Symm=Loose if the higher symmetry is desired.
 Stoichiometry    CH3BrCl(1-)
 Framework group  CS[SG(CHBrCl),X(H2)]
 Deg. of freedom     8
 Full point group                 CS      NOp   2
 Largest Abelian subgroup         CS      NOp   2
 Largest concise Abelian subgroup CS      NOp   2
                         Standard orientation:                         
 ---------------------------------------------------------------------
 Center     Atomic      Atomic             Coordinates (Angstroms)
 Number     Number       Type             X           Y           Z
 ---------------------------------------------------------------------
      1          6           0        0.000000    0.339363    0.000000
      2          1           0        0.513850    0.634082    0.889504
      3          1           0        0.513850    0.634082   -0.889504
      4          1           0       -1.026812    0.635702    0.000000
      5         35           0       -0.002290   -1.734545    0.000000
      6         17           0        0.004663    3.339355    0.000000
 ---------------------------------------------------------------------
 Rotational constants (GHZ):         158.4442936           0.8021460           0.8021460
 Standard basis: STO-3G (5D, 7F)
 There are    27 symmetry adapted cartesian basis functions of A'  symmetry.
 There are     9 symmetry adapted cartesian basis functions of A"  symmetry.
 There are    26 symmetry adapted basis functions of A'  symmetry.
 There are     9 symmetry adapted basis functions of A"  symmetry.
    35 basis functions,   108 primitive gaussians,    36 cartesian basis functions
    31 alpha electrons       31 beta electrons
       nuclear repulsion energy       174.2813569897 Hartrees.
 NAtoms=    6 NActive=    6 NUniq=    5 SFac= 1.44D+00 NAtFMM=   60 NAOKFM=F Big=F
 Integral buffers will be    131072 words long.
 Raffenetti 1 integral format.
 Two-electron integral symmetry is turned on.
 One-electron integrals computed using PRISM.
 NBasis=    35 RedAO= T EigKep=  2.32D-01  NBF=    26     9
 NBsUse=    35 1.00D-06 EigRej= -1.00D+00 NBFU=    26     9
 ExpMin= 1.69D-01 ExpMax= 2.63D+03 ExpMxC= 2.63D+03 IAcc=3 IRadAn=         5 AccDes= 0.00D+00
 Harris functional with IExCor=  205 and IRadAn=       5 diagonalized for initial guess.
 HarFok:  IExCor=  205 AccDes= 0.00D+00 IRadAn=         5 IDoV= 1 UseB2=F ITyADJ=14
 ICtDFT=  3500011 ScaDFX=  1.000000  1.000000  1.000000  1.000000
 FoFCou: FMM=F IPFlag=           0 FMFlag=      100000 FMFlg1=           0
         NFxFlg=           0 DoJE=T BraDBF=F KetDBF=T FulRan=T
         wScrn=  0.000000 ICntrl=       500 IOpCl=  0 I1Cent=   200000004 NGrid=           0
         NMat0=    1 NMatS0=      1 NMatT0=    0 NMatD0=    1 NMtDS0=    0 NMtDT0=    0
 Petite list used in FoFCou.
 Initial guess orbital symmetries:
       Occupied  (A') (A') (A') (A') (A') (A") (A') (A') (A') (A')
                 (A") (A') (A') (A') (A") (A') (A") (A') (A') (A")
                 (A') (A') (A') (A") (A') (A') (A") (A') (A') (A')
                 (A")
       Virtual   (A') (A') (A") (A')
 The electronic state of the initial guess is 1-A'.
 Keep R1 ints in memory in symmetry-blocked form, NReq=1032779.
 Requested convergence on RMS density matrix=1.00D-08 within 128 cycles.
 Requested convergence on MAX density matrix=1.00D-06.
 Requested convergence on             energy=1.00D-06.
 No special actions if energy rises.
 SCF Done:  E(RHF) =  -3038.29451058     A.U. after    8 cycles
            NFock=  8  Conv=0.94D-08     -V/T= 2.0019

 **********************************************************************

            Population analysis using the SCF Density.

 **********************************************************************

 Orbital symmetries:
       Occupied  (A') (A') (A') (A') (A") (A') (A') (A') (A') (A')
                 (A") (A') (A') (A") (A') (A') (A") (A') (A') (A")
                 (A') (A') (A') (A") (A') (A') (A") (A') (A") (A')
                 (A')
       Virtual   (A') (A') (A") (A')
 The electronic state is 1-A'.
 Alpha  occ. eigenvalues -- -484.28912-103.02944 -63.01787 -57.56771 -57.56566
 Alpha  occ. eigenvalues --  -57.56566 -10.94869  -9.75956  -8.96951  -7.20029
 Alpha  occ. eigenvalues --   -7.20005  -7.20005  -6.72008  -6.70938  -6.70938
 Alpha  occ. eigenvalues --   -2.07613  -2.07230  -2.07230  -2.06126  -2.06126
 Alpha  occ. eigenvalues --   -0.81054  -0.65159  -0.53421  -0.42393  -0.42393
 Alpha  occ. eigenvalues --   -0.25337  -0.17161  -0.17161   0.03472   0.03472
 Alpha  occ. eigenvalues --    0.03697
 Alpha virt. eigenvalues --    0.44438   0.86030   0.86033   0.86423
          Condensed to atoms (all electrons):
               1          2          3          4          5          6
     1  C    4.777434   0.388275   0.388275   0.388269   0.210771  -0.001083
     2  H    0.388275   0.554937  -0.019145  -0.019148  -0.015912  -0.000517
     3  H    0.388275  -0.019145   0.554937  -0.019148  -0.015912  -0.000517
     4  H    0.388269  -0.019148  -0.019148   0.555010  -0.015915  -0.000517
     5  Br   0.210771  -0.015912  -0.015912  -0.015915  35.041495   0.000032
     6  Cl  -0.001083  -0.000517  -0.000517  -0.000517   0.000032  17.980573
 Mulliken charges:
               1
     1  C   -0.151941
     2  H    0.111511
     3  H    0.111511
     4  H    0.111449
     5  Br  -0.204558
     6  Cl  -0.977972
 Sum of Mulliken charges =  -1.00000
 Mulliken charges with hydrogens summed into heavy atoms:
               1
     1  C    0.182530
     5  Br  -0.204558
     6  Cl  -0.977972
 Electronic spatial extent (au):  <R**2>=           1193.1469
 Charge=             -1.0000 electrons
 Dipole moment (field-independent basis, Debye):
    X=             -0.0183    Y=            -12.5773    Z=              0.0000  Tot=             12.5773
 Quadrupole moment (field-independent basis, Debye-Ang):
   XX=            -35.8271   YY=            -92.5001   ZZ=            -35.8267
   XY=             -0.0789   XZ=              0.0000   YZ=              0.0000
 Traceless Quadrupole moment (field-independent basis, Debye-Ang):
   XX=             18.8909   YY=            -37.7822   ZZ=             18.8913
   XY=             -0.0789   XZ=              0.0000   YZ=              0.0000
 Octapole moment (field-independent basis, Debye-Ang**2):
  XXX=             -0.7375  YYY=           -218.2787  ZZZ=              0.0000  XYY=             -0.2604
  XXY=            -15.1724  XXZ=              0.0000  XZZ=              0.6571  YZZ=            -15.1733
  YYZ=              0.0000  XYZ=              0.0000
 Hexadecapole moment (field-independent basis, Debye-Ang**3):
 XXXX=            -36.3090 YYYY=          -1763.1827 ZZZZ=            -36.3051 XXXY=             -1.2842
 XXXZ=              0.0000 YYYX=             -1.5982 YYYZ=              0.0000 ZZZX=              0.0000
 ZZZY=              0.0000 XXYY=           -203.0785 XXZZ=            -12.1016 YYZZ=           -203.0789
 XXYZ=              0.0000 YYXZ=              0.0000 ZZXY=              0.2374
 N-N= 1.742813569897D+02 E-N=-7.641435679933D+03  KE= 3.032544101656D+03
 Symmetry A'   KE= 2.631992523395D+03
 Symmetry A"   KE= 4.005515782614D+02
 Calling FoFJK, ICntrl=      2127 FMM=F ISym2X=1 I1Cent= 0 IOpClX= 0 NMat=1 NMatS=1 NMatT=0.
 ***** Axes restored to original set *****
 -------------------------------------------------------------------
 Center     Atomic                   Forces (Hartrees/Bohr)
 Number     Number              X              Y              Z
 -------------------------------------------------------------------
      1        6          -0.000109163   -0.077650272    0.000000000
      2        1           0.006955616    0.008503108    0.012024060
      3        1           0.006955616    0.008503108   -0.012024060
      4        1          -0.013859106    0.008523454    0.000000000
      5       35           0.000059237    0.052667822    0.000000000
      6       17          -0.000002200   -0.000547221    0.000000000
 -------------------------------------------------------------------
 Cartesian Forces:  Max     0.077650272 RMS     0.023092839

 GradGradGradGradGradGradGradGradGradGradGradGradGradGradGradGradGradGrad
 Berny optimization.
 FormGI is forming the generalized inverse of G from B-inverse, IUseBI=4.
 Internal  Forces:  Max     0.052667856 RMS     0.011600948
 Search for a local minimum.
 Step number   1 out of a maximum of   36 on scan point     1 out of    16
 All quantities printed in internal units (Hartrees-Bohrs-Radians)
 Mixed Optimization -- RFO/linear search
 Second derivative matrix not updated -- first step.
 ITU=  0
     Eigenvalues ---    0.01377   0.01387   0.04154   0.05642   0.05663
     Eigenvalues ---    0.10408   0.10710   0.11840   0.34535   0.35034
     Eigenvalues ---    0.354541000.000001000.000001000.000001000.00000
     Eigenvalues --- 1000.000001000.000001000.000001000.000001000.00000
     Eigenvalues --- 1000.000001000.000001000.000001000.000001000.00000
     Eigenvalues --- 1000.00000
 RFO step:  Lambda=-2.19879776D-02 EMin= 1.37740720D-02
 Linear search not attempted -- first point.
 Maximum step size (   0.300) exceeded in Quadratic search.
    -- Step size scaled by   0.775
 Iteration  1 RMS(Cart)=  0.03379730 RMS(Int)=  0.01780739
 Iteration  2 RMS(Cart)=  0.01621452 RMS(Int)=  0.00011303
 Iteration  3 RMS(Cart)=  0.00000010 RMS(Int)=  0.00011303
 Iteration  1 RMS(Cart)=  0.00001628 RMS(Int)=  0.00003219
 Iteration  2 RMS(Cart)=  0.00000922 RMS(Int)=  0.00003593
 Iteration  3 RMS(Cart)=  0.00000522 RMS(Int)=  0.00004075
 Iteration  4 RMS(Cart)=  0.00000295 RMS(Int)=  0.00004407
 Iteration  5 RMS(Cart)=  0.00000167 RMS(Int)=  0.00004610
 Iteration  6 RMS(Cart)=  0.00000095 RMS(Int)=  0.00004729
 ClnCor:  largest displacement from symmetrization is 1.18D-05 for atom     3.
 Variable       Old X    -DE/DX   Delta X   Delta X   Delta X     New X
                                 (Linear)    (Quad)   (Total)
    R1        2.01955   0.01447   0.00000   0.02952   0.02953   2.04908
    R2        2.01955   0.01445   0.00000   0.02951   0.02953   2.04908
    R3        2.01959   0.01423   0.00000   0.02948   0.02949   2.04908
    R4        3.91912  -0.05267   0.00000  -0.29079  -0.29079   3.62833
    R5        5.66917   0.00225   0.00000   0.00000   0.00001   5.66918
    R6        5.46683  -0.00044   0.00000  -0.02339  -0.02358   5.44325
    R7        5.46683  -0.00043   0.00000  -0.02339  -0.02358   5.44325
    R8        5.46836  -0.00058   0.00000  -0.02366  -0.02383   5.44453
    A1        1.96657  -0.00097   0.00000  -0.00974  -0.00997   1.95660
    A2        1.96654  -0.00195   0.00000  -0.01181  -0.01192   1.95462
    A3        1.85074   0.00177   0.00000   0.01283   0.01278   1.86352
    A4        1.96654  -0.00195   0.00000  -0.01181  -0.01192   1.95462
    A5        1.85074   0.00178   0.00000   0.01283   0.01278   1.86352
    A6        1.85066   0.00209   0.00000   0.01299   0.01291   1.86357
    A7        0.62508   0.00447   0.00000   0.01011   0.01010   0.63518
    A8        0.62499   0.00423   0.00000   0.00968   0.00968   0.63467
    A9        0.62499   0.00423   0.00000   0.00968   0.00968   0.63467
   A10        3.14137  -0.00008   0.00000  -0.00001   0.00000   3.14137
   A11        3.14119  -0.00015   0.00000  -0.00002   0.00000   3.14118
    D1        2.24896  -0.00475   0.00000  -0.03418  -0.03369   2.21527
    D2       -2.09445  -0.00065   0.00000  -0.00154  -0.00147  -2.09592
    D3        2.09437  -0.00032   0.00000  -0.00077  -0.00074   2.09363
    D4       -2.09437   0.00032   0.00000   0.00077   0.00074  -2.09363
    D5        0.55310   0.00005   0.00000   0.00018   0.00022   0.55333
    D6       -0.55330  -0.00058   0.00000  -0.00138  -0.00137  -0.55467
    D7        0.55330   0.00058   0.00000   0.00138   0.00137   0.55467
         Item               Value     Threshold  Converged?
 Maximum Force            0.052668     0.000450     NO 
 RMS     Force            0.011811     0.000300     NO 
 Maximum Displacement     0.225645     0.001800     NO 
 RMS     Displacement     0.049518     0.001200     NO 
 Predicted change in Energy=-1.143808D-02
 GradGradGradGradGradGradGradGradGradGradGradGradGradGradGradGradGradGrad

                          Input orientation:                          
 ---------------------------------------------------------------------
 Center     Atomic      Atomic             Coordinates (Angstroms)
 Number     Number       Type             X           Y           Z
 ---------------------------------------------------------------------
      1          6           0        0.000177    0.304887    0.000000
      2          1           0        0.518933    0.617221    0.899503
      3          1           0        0.518933    0.617221   -0.899503
      4          1           0       -1.037664    0.618971    0.000000
      5         35           0       -0.001920   -1.615139    0.000000
      6         17           0        0.004805    3.304883    0.000000
 ---------------------------------------------------------------------
                    Distance matrix (angstroms):
                    1          2          3          4          5
     1  C    0.000000
     2  H    1.084328   0.000000
     3  H    1.084328   1.799006   0.000000
     4  H    1.084326   1.797805   1.797805   0.000000
     5  Br   1.920027   2.462483   2.462483   2.462521   0.000000
     6  Cl   2.999999   2.880445   2.880445   2.881122   4.920027
                    6
     6  Cl   0.000000
 Stoichiometry    CH3BrCl(1-)
 Framework group  CS[SG(CHBrCl),X(H2)]
 Deg. of freedom     8
 Full point group                 CS      NOp   2
 Largest Abelian subgroup         CS      NOp   2
 Largest concise Abelian subgroup CS      NOp   2
                         Standard orientation:                         
 ---------------------------------------------------------------------
 Center     Atomic      Atomic             Coordinates (Angstroms)
 Number     Number       Type             X           Y           Z
 ---------------------------------------------------------------------
      1          6           0        0.000000    0.250201    0.000000
      2          1           0        0.518858    0.562365    0.899503
      3          1           0        0.518858    0.562365   -0.899503
      4          1           0       -1.037738    0.564622    0.000000
      5         35           0       -0.002722   -1.669825    0.000000
      6         17           0        0.005605    3.250195    0.000000
 ---------------------------------------------------------------------
 Rotational constants (GHZ):         155.0788358           0.8545546           0.8545504
 Standard basis: STO-3G (5D, 7F)
 There are    27 symmetry adapted cartesian basis functions of A'  symmetry.
 There are     9 symmetry adapted cartesian basis functions of A"  symmetry.
 There are    26 symmetry adapted basis functions of A'  symmetry.
 There are     9 symmetry adapted basis functions of A"  symmetry.
    35 basis functions,   108 primitive gaussians,    36 cartesian basis functions
    31 alpha electrons       31 beta electrons
       nuclear repulsion energy       181.4655176152 Hartrees.
 NAtoms=    6 NActive=    6 NUniq=    5 SFac= 1.44D+00 NAtFMM=   60 NAOKFM=F Big=F
 Integral buffers will be    131072 words long.
 Raffenetti 1 integral format.
 Two-electron integral symmetry is turned on.
 One-electron integrals computed using PRISM.
 NBasis=    35 RedAO= T EigKep=  2.36D-01  NBF=    26     9
 NBsUse=    35 1.00D-06 EigRej= -1.00D+00 NBFU=    26     9
 Initial guess from the checkpoint file:  "C:\Users\chemistry\Documents\Gruppe H\inputOptimierung.chk"
 B after Tr=     0.000000    0.000000    0.000000
         Rot=    1.000000    0.000000    0.000000    0.000159 Ang=   0.02 deg.
 Initial guess orbital symmetries:
       Occupied  (A') (A') (A') (A') (A") (A') (A') (A') (A') (A')
                 (A") (A') (A') (A") (A') (A') (A") (A') (A') (A")
                 (A') (A') (A') (A") (A') (A') (A") (A') (A") (A')
                 (A')
       Virtual   (A') (A') (A") (A')
 ExpMin= 1.69D-01 ExpMax= 2.63D+03 ExpMxC= 2.63D+03 IAcc=3 IRadAn=         5 AccDes= 0.00D+00
 Harris functional with IExCor=  205 and IRadAn=       5 diagonalized for initial guess.
 HarFok:  IExCor=  205 AccDes= 0.00D+00 IRadAn=         5 IDoV= 1 UseB2=F ITyADJ=14
 ICtDFT=  3500011 ScaDFX=  1.000000  1.000000  1.000000  1.000000
 FoFCou: FMM=F IPFlag=           0 FMFlag=      100000 FMFlg1=           0
         NFxFlg=           0 DoJE=T BraDBF=F KetDBF=T FulRan=T
         wScrn=  0.000000 ICntrl=       500 IOpCl=  0 I1Cent=   200000004 NGrid=           0
         NMat0=    1 NMatS0=      1 NMatT0=    0 NMatD0=    1 NMtDS0=    0 NMtDT0=    0
 Petite list used in FoFCou.
 Keep R1 ints in memory in symmetry-blocked form, NReq=1032913.
 Requested convergence on RMS density matrix=1.00D-08 within 128 cycles.
 Requested convergence on MAX density matrix=1.00D-06.
 Requested convergence on             energy=1.00D-06.
 No special actions if energy rises.
 SCF Done:  E(RHF) =  -3038.30204404     A.U. after    9 cycles
            NFock=  9  Conv=0.17D-08     -V/T= 2.0019
 Calling FoFJK, ICntrl=      2127 FMM=F ISym2X=1 I1Cent= 0 IOpClX= 0 NMat=1 NMatS=1 NMatT=0.
 ***** Axes restored to original set *****
 -------------------------------------------------------------------
 Center     Atomic                   Forces (Hartrees/Bohr)
 Number     Number              X              Y              Z
 -------------------------------------------------------------------
      1        6          -0.000217525   -0.015663726    0.000000000
      2        1          -0.001528537    0.009476191   -0.002961495
      3        1          -0.001528537    0.009476191    0.002961495
      4        1           0.003291555    0.009403393    0.000000000
      5       35          -0.000019085   -0.016107706    0.000000000
      6       17           0.000002128    0.003415658    0.000000000
 -------------------------------------------------------------------
 Cartesian Forces:  Max     0.016107706 RMS     0.006739573

 GradGradGradGradGradGradGradGradGradGradGradGradGradGradGradGradGradGrad
 Berny optimization.
 Using GEDIIS/GDIIS optimizer.
 FormGI is forming the generalized inverse of G from B-inverse, IUseBI=4.
 Internal  Forces:  Max     0.016107717 RMS     0.004604173
 Search for a local minimum.
 Step number   2 out of a maximum of   36 on scan point     1 out of    16
 All quantities printed in internal units (Hartrees-Bohrs-Radians)
 Mixed Optimization -- RFO/linear search
 Update second derivatives using D2CorX and points    1    2
 DE= -7.53D-03 DEPred=-1.14D-02 R= 6.59D-01
 TightC=F SS=  1.41D+00  RLast= 3.02D-01 DXNew= 5.0454D-01 9.0580D-01
 Trust test= 6.59D-01 RLast= 3.02D-01 DXMaxT set to 5.05D-01
 ITU=  1  0
 Use linear search instead of GDIIS.
     Eigenvalues ---    0.01382   0.01393   0.03917   0.05494   0.05533
     Eigenvalues ---    0.10358   0.10704   0.23623   0.34607   0.35089
     Eigenvalues ---    0.361961000.000001000.000001000.000001000.00000
     Eigenvalues --- 1000.000001000.000001000.000001000.000001000.00000
     Eigenvalues --- 1000.000001000.000001000.000001000.000001000.00000
     Eigenvalues --- 1000.00000
 RFO step:  Lambda=-3.05982393D-03 EMin= 1.38177824D-02
 Quartic linear search produced a step of -0.15056.
 Iteration  1 RMS(Cart)=  0.02752207 RMS(Int)=  0.00169139
 Iteration  2 RMS(Cart)=  0.00086602 RMS(Int)=  0.00140793
 Iteration  3 RMS(Cart)=  0.00000043 RMS(Int)=  0.00140793
 Iteration  1 RMS(Cart)=  0.00003775 RMS(Int)=  0.00007271
 Iteration  2 RMS(Cart)=  0.00002114 RMS(Int)=  0.00008118
 Iteration  3 RMS(Cart)=  0.00001184 RMS(Int)=  0.00009197
 Iteration  4 RMS(Cart)=  0.00000663 RMS(Int)=  0.00009930
 Iteration  5 RMS(Cart)=  0.00000372 RMS(Int)=  0.00010373
 Iteration  6 RMS(Cart)=  0.00000208 RMS(Int)=  0.00010629
 Iteration  7 RMS(Cart)=  0.00000117 RMS(Int)=  0.00010775
 Iteration  8 RMS(Cart)=  0.00000065 RMS(Int)=  0.00010858
 ClnCor:  largest displacement from symmetrization is 8.75D-05 for atom     3.
 Variable       Old X    -DE/DX   Delta X   Delta X   Delta X     New X
                                 (Linear)    (Quad)   (Total)
    R1        2.04908  -0.00022  -0.00445   0.01035   0.00615   2.05523
    R2        2.04908   0.00003  -0.00445   0.01036   0.00615   2.05523
    R3        2.04908  -0.00013  -0.00444   0.01044   0.00628   2.05536
    R4        3.62833   0.01611   0.04378  -0.01831   0.02547   3.65380
    R5        5.66918   0.00773   0.00000   0.00000   0.00000   5.66917
    R6        5.44325  -0.00150   0.00355  -0.10501  -0.10202   5.34123
    R7        5.44325  -0.00151   0.00355  -0.10501  -0.10202   5.34123
    R8        5.44453  -0.00187   0.00359  -0.10553  -0.10227   5.34226
    A1        1.95660  -0.00245   0.00150  -0.04550  -0.04765   1.90895
    A2        1.95462  -0.00456   0.00179  -0.04681  -0.04750   1.90713
    A3        1.86352   0.00407  -0.00192   0.05190   0.05017   1.91369
    A4        1.95462  -0.00458   0.00179  -0.04681  -0.04750   1.90713
    A5        1.86352   0.00409  -0.00192   0.05190   0.05017   1.91369
    A6        1.86357   0.00479  -0.00194   0.05179   0.04961   1.91318
    A7        0.63518  -0.00039  -0.00152   0.00594   0.00360   0.63878
    A8        0.63467  -0.00086  -0.00146   0.00566   0.00365   0.63831
    A9        0.63467  -0.00083  -0.00146   0.00566   0.00365   0.63831
   A10        3.14137  -0.00018   0.00000   0.00012   0.00023   3.14160
   A11        3.14118  -0.00032   0.00000   0.00022   0.00042   3.14160
    D1        2.21527  -0.01069   0.00507  -0.13706  -0.12718   2.08809
    D2       -2.09592  -0.00141   0.00022  -0.00113  -0.00019  -2.09610
    D3        2.09363  -0.00070   0.00011  -0.00057  -0.00009   2.09354
    D4       -2.09363   0.00071  -0.00011   0.00057   0.00009  -2.09354
    D5        0.55333  -0.00086  -0.00003   0.00004   0.00040   0.55372
    D6       -0.55467  -0.00036   0.00021  -0.00088  -0.00039  -0.55506
    D7        0.55467   0.00033  -0.00021   0.00088   0.00039   0.55506
         Item               Value     Threshold  Converged?
 Maximum Force            0.016108     0.000450     NO 
 RMS     Force            0.004067     0.000300     NO 
 Maximum Displacement     0.070899     0.001800     NO 
 RMS     Displacement     0.027690     0.001200     NO 
 Predicted change in Energy=-1.718105D-03
 GradGradGradGradGradGradGradGradGradGradGradGradGradGradGradGradGradGrad

                          Input orientation:                          
 ---------------------------------------------------------------------
 Center     Atomic      Atomic             Coordinates (Angstroms)
 Number     Number       Type             X           Y           Z
 ---------------------------------------------------------------------
      1          6           0        0.000347    0.280848    0.000000
      2          1           0        0.512229    0.645800    0.887478
      3          1           0        0.512229    0.645800   -0.887478
      4          1           0       -1.023663    0.647430    0.000000
      5         35           0       -0.002337   -1.652657    0.000000
      6         17           0        0.004483    3.280843    0.000000
 ---------------------------------------------------------------------
                    Distance matrix (angstroms):
                    1          2          3          4          5
     1  C    0.000000
     2  H    1.087580   0.000000
     3  H    1.087580   1.774955   0.000000
     4  H    1.087649   1.773861   1.773861   0.000000
     5  Br   1.933506   2.517002   2.517002   2.516646   0.000000
     6  Cl   2.999998   2.826460   2.826460   2.827003   4.933505
                    6
     6  Cl   0.000000
 Stoichiometry    CH3BrCl(1-)
 Framework group  CS[SG(CHBrCl),X(H2)]
 Deg. of freedom     8
 Full point group                 CS      NOp   2
 Largest Abelian subgroup         CS      NOp   2
 Largest concise Abelian subgroup CS      NOp   2
                         Standard orientation:                         
 ---------------------------------------------------------------------
 Center     Atomic      Atomic             Coordinates (Angstroms)
 Number     Number       Type             X           Y           Z
 ---------------------------------------------------------------------
      1          6           0        0.000000    0.255349    0.000000
      2          1           0        0.511321    0.621086    0.887478
      3          1           0        0.511321    0.621086   -0.887478
      4          1           0       -1.024572    0.620360    0.000000
      5         35           0        0.000282   -1.678158    0.000000
      6         17           0       -0.000467    3.255347    0.000000
 ---------------------------------------------------------------------
 Rotational constants (GHZ):         159.2994130           0.8495037           0.8494999
 Standard basis: STO-3G (5D, 7F)
 There are    27 symmetry adapted cartesian basis functions of A'  symmetry.
 There are     9 symmetry adapted cartesian basis functions of A"  symmetry.
 There are    26 symmetry adapted basis functions of A'  symmetry.
 There are     9 symmetry adapted basis functions of A"  symmetry.
    35 basis functions,   108 primitive gaussians,    36 cartesian basis functions
    31 alpha electrons       31 beta electrons
       nuclear repulsion energy       180.5641708374 Hartrees.
 NAtoms=    6 NActive=    6 NUniq=    5 SFac= 1.44D+00 NAtFMM=   60 NAOKFM=F Big=F
 Integral buffers will be    131072 words long.
 Raffenetti 1 integral format.
 Two-electron integral symmetry is turned on.
 One-electron integrals computed using PRISM.
 NBasis=    35 RedAO= T EigKep=  2.36D-01  NBF=    26     9
 NBsUse=    35 1.00D-06 EigRej= -1.00D+00 NBFU=    26     9
 Initial guess from the checkpoint file:  "C:\Users\chemistry\Documents\Gruppe H\inputOptimierung.chk"
 B after Tr=     0.000000    0.000000    0.000000
         Rot=    1.000000    0.000000    0.000000   -0.000919 Ang=  -0.11 deg.
 Initial guess orbital symmetries:
       Occupied  (A') (A') (A') (A') (A") (A') (A') (A') (A') (A')
                 (A") (A') (A') (A") (A') (A') (A") (A') (A') (A")
                 (A') (A') (A') (A") (A') (A') (A") (A') (A") (A')
                 (A')
       Virtual   (A') (A') (A") (A')
 ExpMin= 1.69D-01 ExpMax= 2.63D+03 ExpMxC= 2.63D+03 IAcc=3 IRadAn=         5 AccDes= 0.00D+00
 Harris functional with IExCor=  205 and IRadAn=       5 diagonalized for initial guess.
 HarFok:  IExCor=  205 AccDes= 0.00D+00 IRadAn=         5 IDoV= 1 UseB2=F ITyADJ=14
 ICtDFT=  3500011 ScaDFX=  1.000000  1.000000  1.000000  1.000000
 FoFCou: FMM=F IPFlag=           0 FMFlag=      100000 FMFlg1=           0
         NFxFlg=           0 DoJE=T BraDBF=F KetDBF=T FulRan=T
         wScrn=  0.000000 ICntrl=       500 IOpCl=  0 I1Cent=   200000004 NGrid=           0
         NMat0=    1 NMatS0=      1 NMatT0=    0 NMatD0=    1 NMtDS0=    0 NMtDT0=    0
 Petite list used in FoFCou.
 Keep R1 ints in memory in symmetry-blocked form, NReq=1032913.
 Requested convergence on RMS density matrix=1.00D-08 within 128 cycles.
 Requested convergence on MAX density matrix=1.00D-06.
 Requested convergence on             energy=1.00D-06.
 No special actions if energy rises.
 SCF Done:  E(RHF) =  -3038.30389046     A.U. after    8 cycles
            NFock=  8  Conv=0.44D-08     -V/T= 2.0019
 Calling FoFJK, ICntrl=      2127 FMM=F ISym2X=1 I1Cent= 0 IOpClX= 0 NMat=1 NMatS=1 NMatT=0.
 ***** Axes restored to original set *****
 -------------------------------------------------------------------
 Center     Atomic                   Forces (Hartrees/Bohr)
 Number     Number              X              Y              Z
 -------------------------------------------------------------------
      1        6          -0.000312416   -0.003847347    0.000000000
      2        1          -0.001162689    0.000017819   -0.002306926
      3        1          -0.001162689    0.000017819    0.002306926
      4        1           0.002602946   -0.000022921    0.000000000
      5       35           0.000030998    0.000060294    0.000000000
      6       17           0.000003850    0.003774336    0.000000000
 -------------------------------------------------------------------
 Cartesian Forces:  Max     0.003847347 RMS     0.001654521

 GradGradGradGradGradGradGradGradGradGradGradGradGradGradGradGradGradGrad
 Berny optimization.
 Using GEDIIS/GDIIS optimizer.
 FormGI is forming the generalized inverse of G from B-inverse, IUseBI=4.
 Internal  Forces:  Max     0.002178023 RMS     0.001031237
 Search for a local minimum.
 Step number   3 out of a maximum of   36 on scan point     1 out of    16
 All quantities printed in internal units (Hartrees-Bohrs-Radians)
 Mixed Optimization -- En-DIIS/RFO-DIIS
 Update second derivatives using D2CorX and points    1    2    3
 DE= -1.85D-03 DEPred=-1.72D-03 R= 1.07D+00
 TightC=F SS=  1.41D+00  RLast= 2.50D-01 DXNew= 8.4853D-01 7.5018D-01
 Trust test= 1.07D+00 RLast= 2.50D-01 DXMaxT set to 7.50D-01
 ITU=  1  1  0
 Use linear search instead of GDIIS.
     Eigenvalues ---    0.01372   0.01392   0.03260   0.04967   0.05081
     Eigenvalues ---    0.10226   0.10715   0.25569   0.34555   0.35098
     Eigenvalues ---    0.375821000.000001000.000001000.000001000.00000
     Eigenvalues --- 1000.000001000.000001000.000001000.000001000.00000
     Eigenvalues --- 1000.000001000.000001000.000001000.000001000.00000
     Eigenvalues --- 1000.00000
 RFO step:  Lambda=-6.47418712D-05 EMin= 1.37195723D-02
 Quartic linear search produced a step of  0.06834.
 Iteration  1 RMS(Cart)=  0.00414149 RMS(Int)=  0.00011812
 Iteration  2 RMS(Cart)=  0.00001350 RMS(Int)=  0.00011690
 Iteration  3 RMS(Cart)=  0.00000000 RMS(Int)=  0.00011690
 Iteration  1 RMS(Cart)=  0.00000131 RMS(Int)=  0.00000252
 Iteration  2 RMS(Cart)=  0.00000073 RMS(Int)=  0.00000281
 ClnCor:  largest displacement from symmetrization is 4.43D-05 for atom     3.
 Variable       Old X    -DE/DX   Delta X   Delta X   Delta X     New X
                                 (Linear)    (Quad)   (Total)
    R1        2.05523  -0.00218   0.00042  -0.00643  -0.00600   2.04923
    R2        2.05523  -0.00212   0.00042  -0.00644  -0.00600   2.04923
    R3        2.05536  -0.00216   0.00043  -0.00656  -0.00611   2.04925
    R4        3.65380  -0.00006   0.00174  -0.00803  -0.00629   3.64751
    R5        5.66917   0.00215   0.00000   0.00000   0.00000   5.66918
    R6        5.34123   0.00049  -0.00697  -0.00645  -0.01344   5.32780
    R7        5.34123   0.00049  -0.00697  -0.00639  -0.01344   5.32780
    R8        5.34226   0.00042  -0.00699  -0.00661  -0.01360   5.32866
    A1        1.90895  -0.00054  -0.00326  -0.00418  -0.00776   1.90120
    A2        1.90713  -0.00081  -0.00325  -0.00254  -0.00600   1.90112
    A3        1.91369   0.00066   0.00343   0.00280   0.00627   1.91996
    A4        1.90713  -0.00081  -0.00325  -0.00254  -0.00600   1.90112
    A5        1.91369   0.00066   0.00343   0.00280   0.00627   1.91996
    A6        1.91318   0.00083   0.00339   0.00360   0.00698   1.92016
    A7        0.63878  -0.00088   0.00025  -0.00226  -0.00209   0.63669
    A8        0.63831  -0.00094   0.00025  -0.00188  -0.00169   0.63663
    A9        0.63831  -0.00094   0.00025  -0.00188  -0.00169   0.63663
   A10        3.14160  -0.00004   0.00002  -0.00025  -0.00021   3.14139
   A11        3.14160  -0.00008   0.00003  -0.00043  -0.00039   3.14121
    D1        2.08809  -0.00164  -0.00869  -0.00814  -0.01648   2.07161
    D2       -2.09610  -0.00015  -0.00001   0.00167   0.00173  -2.09437
    D3        2.09354  -0.00008  -0.00001   0.00084   0.00087   2.09441
    D4       -2.09354   0.00008   0.00001  -0.00084  -0.00087  -2.09441
    D5        0.55372  -0.00019   0.00003   0.00051   0.00057   0.55429
    D6       -0.55506   0.00004  -0.00003   0.00058   0.00058  -0.55448
    D7        0.55506  -0.00004   0.00003  -0.00058  -0.00058   0.55448
         Item               Value     Threshold  Converged?
 Maximum Force            0.002207     0.000450     NO 
 RMS     Force            0.000829     0.000300     NO 
 Maximum Displacement     0.009623     0.001800     NO 
 RMS     Displacement     0.004150     0.001200     NO 
 Predicted change in Energy=-4.006862D-05
 GradGradGradGradGradGradGradGradGradGradGradGradGradGradGradGradGradGrad

                          Input orientation:                          
 ---------------------------------------------------------------------
 Center     Atomic      Atomic             Coordinates (Angstroms)
 Number     Number       Type             X           Y           Z
 ---------------------------------------------------------------------
      1          6           0       -0.000070    0.277515    0.000000
      2          1           0        0.509830    0.647946    0.882448
      3          1           0        0.509830    0.647946   -0.882448
      4          1           0       -1.018571    0.649826    0.000000
      5         35           0       -0.002181   -1.652663    0.000000
      6         17           0        0.004452    3.277510    0.000000
 ---------------------------------------------------------------------
                    Distance matrix (angstroms):
                    1          2          3          4          5
     1  C    0.000000
     2  H    1.084403   0.000000
     3  H    1.084403   1.764896   0.000000
     4  H    1.084416   1.764858   1.764858   0.000000
     5  Br   1.930180   2.516679   2.516679   2.516844   0.000000
     6  Cl   2.999998   2.819349   2.819349   2.819805   4.930178
                    6
     6  Cl   0.000000
 Stoichiometry    CH3BrCl(1-)
 Framework group  CS[SG(CHBrCl),X(H2)]
 Deg. of freedom     8
 Full point group                 CS      NOp   2
 Largest Abelian subgroup         CS      NOp   2
 Largest concise Abelian subgroup CS      NOp   2
                         Standard orientation:                         
 ---------------------------------------------------------------------
 Center     Atomic      Atomic             Coordinates (Angstroms)
 Number     Number       Type             X           Y           Z
 ---------------------------------------------------------------------
      1          6           0        0.000000    0.253167    0.000000
      2          1           0        0.510003    0.623455    0.882448
      3          1           0        0.510003    0.623455   -0.882448
      4          1           0       -1.018397    0.625761    0.000000
      5         35           0       -0.002648   -1.677011    0.000000
      6         17           0        0.005357    3.253160    0.000000
 ---------------------------------------------------------------------
 Rotational constants (GHZ):         160.9925327           0.8506705           0.8506704
 Standard basis: STO-3G (5D, 7F)
 There are    27 symmetry adapted cartesian basis functions of A'  symmetry.
 There are     9 symmetry adapted cartesian basis functions of A"  symmetry.
 There are    26 symmetry adapted basis functions of A'  symmetry.
 There are     9 symmetry adapted basis functions of A"  symmetry.
    35 basis functions,   108 primitive gaussians,    36 cartesian basis functions
    31 alpha electrons       31 beta electrons
       nuclear repulsion energy       180.7623125806 Hartrees.
 NAtoms=    6 NActive=    6 NUniq=    5 SFac= 1.44D+00 NAtFMM=   60 NAOKFM=F Big=F
 Integral buffers will be    131072 words long.
 Raffenetti 1 integral format.
 Two-electron integral symmetry is turned on.
 One-electron integrals computed using PRISM.
 NBasis=    35 RedAO= T EigKep=  2.34D-01  NBF=    26     9
 NBsUse=    35 1.00D-06 EigRej= -1.00D+00 NBFU=    26     9
 Initial guess from the checkpoint file:  "C:\Users\chemistry\Documents\Gruppe H\inputOptimierung.chk"
 B after Tr=     0.000000    0.000000    0.000000
         Rot=    1.000000    0.000000    0.000000    0.000887 Ang=   0.10 deg.
 Initial guess orbital symmetries:
       Occupied  (A') (A') (A') (A') (A") (A') (A') (A') (A') (A')
                 (A") (A') (A') (A") (A') (A') (A") (A') (A') (A")
                 (A') (A') (A') (A") (A') (A') (A") (A') (A") (A')
                 (A')
       Virtual   (A') (A') (A") (A')
 Keep R1 ints in memory in symmetry-blocked form, NReq=1032913.
 Requested convergence on RMS density matrix=1.00D-08 within 128 cycles.
 Requested convergence on MAX density matrix=1.00D-06.
 Requested convergence on             energy=1.00D-06.
 No special actions if energy rises.
 SCF Done:  E(RHF) =  -3038.30392103     A.U. after    8 cycles
            NFock=  8  Conv=0.12D-08     -V/T= 2.0019
 Calling FoFJK, ICntrl=      2127 FMM=F ISym2X=1 I1Cent= 0 IOpClX= 0 NMat=1 NMatS=1 NMatT=0.
 ***** Axes restored to original set *****
 -------------------------------------------------------------------
 Center     Atomic                   Forces (Hartrees/Bohr)
 Number     Number              X              Y              Z
 -------------------------------------------------------------------
      1        6          -0.000001757   -0.003347426    0.000000000
      2        1           0.000273831    0.000062951    0.000460609
      3        1           0.000273831    0.000062951   -0.000460609
      4        1          -0.000535908    0.000037204    0.000000000
      5       35          -0.000014583   -0.000685866    0.000000000
      6       17           0.000004586    0.003870187    0.000000000
 -------------------------------------------------------------------
 Cartesian Forces:  Max     0.003870187 RMS     0.001236596

 GradGradGradGradGradGradGradGradGradGradGradGradGradGradGradGradGradGrad
 Berny optimization.
 Using GEDIIS/GDIIS optimizer.
 FormGI is forming the generalized inverse of G from B-inverse, IUseBI=4.
 Internal  Forces:  Max     0.001631038 RMS     0.000529542
 Search for a local minimum.
 Step number   4 out of a maximum of   36 on scan point     1 out of    16
 All quantities printed in internal units (Hartrees-Bohrs-Radians)
 Mixed Optimization -- En-DIIS/RFO-DIIS
 Swapping is turned off.
 Update second derivatives using D2CorX and points    1    2    3    4
 DE= -3.06D-05 DEPred=-4.01D-05 R= 7.63D-01
 TightC=F SS=  1.41D+00  RLast= 3.52D-02 DXNew= 1.2616D+00 1.0572D-01
 Trust test= 7.63D-01 RLast= 3.52D-02 DXMaxT set to 7.50D-01
 ITU=  1  1  1  0
     Eigenvalues ---    0.01369   0.01390   0.03573   0.04947   0.05018
     Eigenvalues ---    0.10226   0.10718   0.25575   0.34541   0.35085
     Eigenvalues ---    0.411221000.000001000.000001000.000001000.00000
     Eigenvalues --- 1000.000001000.000001000.000001000.000001000.00000
     Eigenvalues --- 1000.000001000.000001000.000001000.000001000.00000
     Eigenvalues --- 1000.00000
 En-DIIS/RFO-DIIS/Sim-DIIS IScMMF=       -3 using points:     4    3
 RFO step:  Lambda=-4.89015619D-06.
 DidBck=F Rises=F RFO-DIIS coefs:    0.81031    0.18969
 Iteration  1 RMS(Cart)=  0.00084589 RMS(Int)=  0.00000365
 Iteration  2 RMS(Cart)=  0.00000046 RMS(Int)=  0.00000361
 Iteration  1 RMS(Cart)=  0.00000074 RMS(Int)=  0.00000143
 ClnCor:  largest displacement from symmetrization is 2.38D-06 for atom     3.
 Variable       Old X    -DE/DX   Delta X   Delta X   Delta X     New X
                                 (Linear)    (Quad)   (Total)
    R1        2.04923   0.00051   0.00114  -0.00010   0.00104   2.05026
    R2        2.04923   0.00053   0.00114  -0.00010   0.00104   2.05026
    R3        2.04925   0.00050   0.00116  -0.00015   0.00101   2.05026
    R4        3.64751   0.00069   0.00119   0.00214   0.00334   3.65085
    R5        5.66918   0.00163   0.00000   0.00000   0.00000   5.66918
    R6        5.32780   0.00081   0.00255  -0.00003   0.00252   5.33031
    R7        5.32780   0.00081   0.00255  -0.00003   0.00252   5.33031
    R8        5.32866   0.00078   0.00258  -0.00018   0.00239   5.33105
    A1        1.90120  -0.00025   0.00147  -0.00035   0.00113   1.90233
    A2        1.90112  -0.00042   0.00114   0.00012   0.00126   1.90238
    A3        1.91996   0.00034  -0.00119   0.00008  -0.00112   1.91884
    A4        1.90112  -0.00042   0.00114   0.00012   0.00126   1.90238
    A5        1.91996   0.00034  -0.00119   0.00008  -0.00112   1.91884
    A6        1.92016   0.00039  -0.00132  -0.00003  -0.00136   1.91880
    A7        0.63669   0.00001   0.00040  -0.00011   0.00029   0.63698
    A8        0.63663  -0.00004   0.00032   0.00000   0.00032   0.63695
    A9        0.63663  -0.00003   0.00032   0.00000   0.00032   0.63695
   A10        3.14139  -0.00001   0.00004   0.00006   0.00010   3.14149
   A11        3.14121  -0.00002   0.00007   0.00011   0.00019   3.14140
    D1        2.07161  -0.00079   0.00313  -0.00029   0.00283   2.07444
    D2       -2.09437  -0.00012  -0.00033   0.00034   0.00001  -2.09436
    D3        2.09441  -0.00006  -0.00016   0.00017   0.00000   2.09441
    D4       -2.09441   0.00006   0.00016  -0.00017   0.00000  -2.09441
    D5        0.55429  -0.00007  -0.00011   0.00021   0.00010   0.55440
    D6       -0.55448  -0.00003  -0.00011   0.00012   0.00001  -0.55447
    D7        0.55448   0.00003   0.00011  -0.00012  -0.00001   0.55447
         Item               Value     Threshold  Converged?
 Maximum Force            0.000686     0.000450     NO 
 RMS     Force            0.000223     0.000300     YES
 Maximum Displacement     0.001803     0.001800     NO 
 RMS     Displacement     0.000846     0.001200     YES
 Predicted change in Energy=-2.444610D-06
 GradGradGradGradGradGradGradGradGradGradGradGradGradGradGradGradGradGrad

                          Input orientation:                          
 ---------------------------------------------------------------------
 Center     Atomic      Atomic             Coordinates (Angstroms)
 Number     Number       Type             X           Y           Z
 ---------------------------------------------------------------------
      1          6           0       -0.000005    0.278327    0.000000
      2          1           0        0.510412    0.647739    0.883251
      3          1           0        0.510412    0.647739   -0.883251
      4          1           0       -1.019464    0.649572    0.000000
      5         35           0       -0.002375   -1.653618    0.000000
      6         17           0        0.004311    3.278322    0.000000
 ---------------------------------------------------------------------
                    Distance matrix (angstroms):
                    1          2          3          4          5
     1  C    0.000000
     2  H    1.084953   0.000000
     3  H    1.084953   1.766502   0.000000
     4  H    1.084952   1.766538   1.766538   0.000000
     5  Br   1.931946   2.517801   2.517801   2.517768   0.000000
     6  Cl   2.999999   2.820680   2.820680   2.821071   4.931944
                    6
     6  Cl   0.000000
 Stoichiometry    CH3BrCl(1-)
 Framework group  CS[SG(CHBrCl),X(H2)]
 Deg. of freedom     8
 Full point group                 CS      NOp   2
 Largest Abelian subgroup         CS      NOp   2
 Largest concise Abelian subgroup CS      NOp   2
                         Standard orientation:                         
 ---------------------------------------------------------------------
 Center     Atomic      Atomic             Coordinates (Angstroms)
 Number     Number       Type             X           Y           Z
 ---------------------------------------------------------------------
      1          6           0        0.000000    0.254230    0.000000
      2          1           0        0.510221    0.623913    0.883251
      3          1           0        0.510221    0.623913   -0.883251
      4          1           0       -1.019656    0.624936    0.000000
      5         35           0       -0.001347   -1.677715    0.000000
      6         17           0        0.002727    3.254228    0.000000
 ---------------------------------------------------------------------
 Rotational constants (GHZ):         160.6911684           0.8500462           0.8500460
 Standard basis: STO-3G (5D, 7F)
 There are    27 symmetry adapted cartesian basis functions of A'  symmetry.
 There are     9 symmetry adapted cartesian basis functions of A"  symmetry.
 There are    26 symmetry adapted basis functions of A'  symmetry.
 There are     9 symmetry adapted basis functions of A"  symmetry.
    35 basis functions,   108 primitive gaussians,    36 cartesian basis functions
    31 alpha electrons       31 beta electrons
       nuclear repulsion energy       180.6678643805 Hartrees.
 NAtoms=    6 NActive=    6 NUniq=    5 SFac= 1.44D+00 NAtFMM=   60 NAOKFM=F Big=F
 Integral buffers will be    131072 words long.
 Raffenetti 1 integral format.
 Two-electron integral symmetry is turned on.
 One-electron integrals computed using PRISM.
 NBasis=    35 RedAO= T EigKep=  2.34D-01  NBF=    26     9
 NBsUse=    35 1.00D-06 EigRej= -1.00D+00 NBFU=    26     9
 Initial guess from the checkpoint file:  "C:\Users\chemistry\Documents\Gruppe H\inputOptimierung.chk"
 B after Tr=     0.000000    0.000000    0.000000
         Rot=    1.000000    0.000000    0.000000   -0.000397 Ang=  -0.05 deg.
 Initial guess orbital symmetries:
       Occupied  (A') (A') (A') (A') (A') (A") (A') (A') (A') (A')
                 (A") (A') (A') (A') (A") (A') (A') (A") (A") (A')
                 (A') (A') (A') (A") (A') (A') (A') (A") (A") (A')
                 (A')
       Virtual   (A') (A') (A") (A')
 Keep R1 ints in memory in symmetry-blocked form, NReq=1032913.
 Requested convergence on RMS density matrix=1.00D-08 within 128 cycles.
 Requested convergence on MAX density matrix=1.00D-06.
 Requested convergence on             energy=1.00D-06.
 No special actions if energy rises.
 SCF Done:  E(RHF) =  -3038.30392335     A.U. after    7 cycles
            NFock=  7  Conv=0.39D-08     -V/T= 2.0019
 Calling FoFJK, ICntrl=      2127 FMM=F ISym2X=1 I1Cent= 0 IOpClX= 0 NMat=1 NMatS=1 NMatT=0.
 ***** Axes restored to original set *****
 -------------------------------------------------------------------
 Center     Atomic                   Forces (Hartrees/Bohr)
 Number     Number              X              Y              Z
 -------------------------------------------------------------------
      1        6          -0.000000704   -0.003948775    0.000000000
      2        1           0.000009469    0.000005344    0.000023172
      3        1           0.000009469    0.000005344   -0.000023172
      4        1          -0.000024306    0.000009375    0.000000000
      5       35           0.000000814    0.000101445    0.000000000
      6       17           0.000005259    0.003827266    0.000000000
 -------------------------------------------------------------------
 Cartesian Forces:  Max     0.003948775 RMS     0.001296429

 GradGradGradGradGradGradGradGradGradGradGradGradGradGradGradGradGradGrad
 Berny optimization.
 Using GEDIIS/GDIIS optimizer.
 FormGI is forming the generalized inverse of G from B-inverse, IUseBI=4.
 Internal  Forces:  Max     0.001682014 RMS     0.000498023
 Search for a local minimum.
 Step number   5 out of a maximum of   36 on scan point     1 out of    16
 All quantities printed in internal units (Hartrees-Bohrs-Radians)
 Mixed Optimization -- En-DIIS/RFO-DIIS
 Swapping is turned off.
 Update second derivatives using D2CorX and points    1    2    3    4    5
 DE= -2.32D-06 DEPred=-2.44D-06 R= 9.48D-01
 TightC=F SS=  1.41D+00  RLast= 7.06D-03 DXNew= 1.2616D+00 2.1183D-02
 Trust test= 9.48D-01 RLast= 7.06D-03 DXMaxT set to 7.50D-01
 ITU=  1  1  1  1  0
     Eigenvalues ---    0.01369   0.01390   0.03745   0.04981   0.05030
     Eigenvalues ---    0.10232   0.10718   0.28015   0.34543   0.35086
     Eigenvalues ---    0.397691000.000001000.000001000.000001000.00000
     Eigenvalues --- 1000.000001000.000001000.000001000.000001000.00000
     Eigenvalues --- 1000.000001000.000001000.000001000.000001000.00000
     Eigenvalues --- 1000.00000
 En-DIIS/RFO-DIIS/Sim-DIIS IScMMF=       -3 using points:     5    4    3
 RFO step:  Lambda=-4.52514890D-08.
 DidBck=F Rises=F RFO-DIIS coefs:    0.84208    0.13414    0.02378
 Iteration  1 RMS(Cart)=  0.00006096 RMS(Int)=  0.00000058
 Iteration  2 RMS(Cart)=  0.00000000 RMS(Int)=  0.00000058
 Iteration  1 RMS(Cart)=  0.00000052 RMS(Int)=  0.00000100
 ClnCor:  largest displacement from symmetrization is 6.06D-08 for atom     3.
 Variable       Old X    -DE/DX   Delta X   Delta X   Delta X     New X
                                 (Linear)    (Quad)   (Total)
    R1        2.05026   0.00005  -0.00002   0.00008   0.00006   2.05032
    R2        2.05026   0.00008  -0.00002   0.00008   0.00006   2.05032
    R3        2.05026   0.00006  -0.00001   0.00007   0.00006   2.05032
    R4        3.65085  -0.00010  -0.00038   0.00000  -0.00037   3.65048
    R5        5.66918   0.00168   0.00000   0.00000   0.00000   5.66917
    R6        5.33031   0.00076  -0.00008   0.00001  -0.00007   5.33024
    R7        5.33031   0.00076  -0.00008   0.00001  -0.00007   5.33024
    R8        5.33105   0.00072  -0.00005  -0.00006  -0.00012   5.33093
    A1        1.90233  -0.00027   0.00001  -0.00002  -0.00001   1.90231
    A2        1.90238  -0.00048  -0.00006   0.00000  -0.00006   1.90233
    A3        1.91884   0.00037   0.00003   0.00001   0.00004   1.91888
    A4        1.90238  -0.00048  -0.00006   0.00000  -0.00006   1.90233
    A5        1.91884   0.00037   0.00003   0.00001   0.00004   1.91888
    A6        1.91880   0.00046   0.00005   0.00000   0.00005   1.91885
    A7        0.63698  -0.00014   0.00000   0.00002   0.00002   0.63701
    A8        0.63695  -0.00019  -0.00001   0.00003   0.00002   0.63697
    A9        0.63695  -0.00018  -0.00001   0.00003   0.00002   0.63697
   A10        3.14149  -0.00002  -0.00001   0.00001   0.00000   3.14149
   A11        3.14140  -0.00004  -0.00002   0.00003   0.00001   3.14140
    D1        2.07444  -0.00088  -0.00006  -0.00003  -0.00009   2.07435
    D2       -2.09436  -0.00014  -0.00004   0.00001  -0.00003  -2.09440
    D3        2.09441  -0.00007  -0.00002   0.00001  -0.00002   2.09439
    D4       -2.09441   0.00007   0.00002  -0.00001   0.00002  -2.09439
    D5        0.55440  -0.00010  -0.00003   0.00002  -0.00001   0.55438
    D6       -0.55447  -0.00003  -0.00001   0.00001  -0.00001  -0.55448
    D7        0.55447   0.00002   0.00001  -0.00001   0.00001   0.55448
         Item               Value     Threshold  Converged?
 Maximum Force            0.000101     0.000450     YES
 RMS     Force            0.000022     0.000300     YES
 Maximum Displacement     0.000259     0.001800     YES
 RMS     Displacement     0.000061     0.001200     YES
 Predicted change in Energy=-1.606515D-08
 Optimization completed.
    -- Stationary point found.
                           ----------------------------
                           !   Optimized Parameters   !
                           ! (Angstroms and Degrees)  !
 --------------------------                            --------------------------
 ! Name  Definition              Value          Derivative Info.                !
 --------------------------------------------------------------------------------
 ! R1    R(1,2)                  1.085          -DE/DX =    0.0001              !
 ! R2    R(1,3)                  1.085          -DE/DX =    0.0001              !
 ! R3    R(1,4)                  1.085          -DE/DX =    0.0001              !
 ! R4    R(1,5)                  1.9319         -DE/DX =   -0.0001              !
 ! R5    R(1,6)                  3.0            -DE/DX =    0.0017              !
 ! R6    R(2,6)                  2.8207         -DE/DX =    0.0008              !
 ! R7    R(3,6)                  2.8207         -DE/DX =    0.0008              !
 ! R8    R(4,6)                  2.8211         -DE/DX =    0.0007              !
 ! A1    A(2,1,3)              108.9953         -DE/DX =   -0.0003              !
 ! A2    A(2,1,4)              108.9986         -DE/DX =   -0.0005              !
 ! A3    A(2,1,5)              109.9417         -DE/DX =    0.0004              !
 ! A4    A(3,1,4)              108.9986         -DE/DX =   -0.0005              !
 ! A5    A(3,1,5)              109.9417         -DE/DX =    0.0004              !
 ! A6    A(4,1,5)              109.9393         -DE/DX =    0.0005              !
 ! A7    A(2,6,3)               36.4964         -DE/DX =   -0.0001              !
 ! A8    A(2,6,4)               36.4946         -DE/DX =   -0.0002              !
 ! A9    A(3,6,4)               36.4946         -DE/DX =   -0.0002              !
 ! A10   L(5,1,6,2,-1)         179.9939         -DE/DX =    0.0                 !
 ! A11   L(5,1,6,2,-2)         179.9888         -DE/DX =    0.0                 !
 ! D1    D(2,1,4,3)            118.8565         -DE/DX =   -0.0009              !
 ! D2    D(2,1,5,3)           -119.9982         -DE/DX =   -0.0001              !
 ! D3    D(2,1,5,4)            120.0009         -DE/DX =   -0.0001              !
 ! D4    D(3,1,5,4)           -120.0009         -DE/DX =    0.0001              !
 ! D5    D(3,2,6,1)             31.7646         -DE/DX =   -0.0001              !
 ! D6    D(4,2,6,1)            -31.769          -DE/DX =    0.0                 !
 ! D7    D(4,3,6,1)             31.769          -DE/DX =    0.0                 !
 --------------------------------------------------------------------------------
 Iteration  1 RMS(Cart)=  0.01437442 RMS(Int)=  0.02776684
 Iteration  2 RMS(Cart)=  0.00016799 RMS(Int)=  0.02776591
 Iteration  3 RMS(Cart)=  0.00000307 RMS(Int)=  0.02776591
 Iteration  4 RMS(Cart)=  0.00000007 RMS(Int)=  0.02776591
 Iteration  1 RMS(Cart)=  0.00802829 RMS(Int)=  0.01561410
 Iteration  2 RMS(Cart)=  0.00449956 RMS(Int)=  0.01743488
 Iteration  3 RMS(Cart)=  0.00252968 RMS(Int)=  0.01976297
 Iteration  4 RMS(Cart)=  0.00142473 RMS(Int)=  0.02135691
 Iteration  5 RMS(Cart)=  0.00080322 RMS(Int)=  0.02232496
 Iteration  6 RMS(Cart)=  0.00045309 RMS(Int)=  0.02289007
 Iteration  7 RMS(Cart)=  0.00025566 RMS(Int)=  0.02321453
 Iteration  8 RMS(Cart)=  0.00014429 RMS(Int)=  0.02339935
 Iteration  9 RMS(Cart)=  0.00008144 RMS(Int)=  0.02350419
 Iteration 10 RMS(Cart)=  0.00004597 RMS(Int)=  0.02356353
 Iteration 11 RMS(Cart)=  0.00002595 RMS(Int)=  0.02359708
 Iteration 12 RMS(Cart)=  0.00001465 RMS(Int)=  0.02361604
 Iteration 13 RMS(Cart)=  0.00000827 RMS(Int)=  0.02362674
 Iteration 14 RMS(Cart)=  0.00000467 RMS(Int)=  0.02363279
 Iteration 15 RMS(Cart)=  0.00000263 RMS(Int)=  0.02363620
 Iteration 16 RMS(Cart)=  0.00000149 RMS(Int)=  0.02363813
 Iteration 17 RMS(Cart)=  0.00000084 RMS(Int)=  0.02363921
 GradGradGradGradGradGradGradGradGradGradGradGradGradGradGradGradGradGrad

                          Input orientation:                          
 ---------------------------------------------------------------------
 Center     Atomic      Atomic             Coordinates (Angstroms)
 Number     Number       Type             X           Y           Z
 ---------------------------------------------------------------------
      1          6           0       -0.000559    0.318040   -0.000222
      2          1           0        0.524854    0.642886    0.891469
      3          1           0        0.524117    0.642316   -0.890514
      4          1           0       -1.035640    0.640491   -0.000160
      5         35           0       -0.009172   -1.613690   -0.000391
      6         17           0       -0.000310    3.218039   -0.000182
 ---------------------------------------------------------------------
                    Distance matrix (angstroms):
                    1          2          3          4          5
     1  C    0.000000
     2  H    1.084757   0.000000
     3  H    1.083078   1.781983   0.000000
     4  H    1.084144   1.797262   1.795989   0.000000
     5  Br   1.931750   2.484499   2.483199   2.476888   0.000000
     6  Cl   2.899999   2.775293   2.775259   2.777707   4.831737
                    6
     6  Cl   0.000000
 Stoichiometry    CH3BrCl(1-)
 Framework group  C1[X(CH3BrCl)]
 Deg. of freedom    12
 Full point group                 C1      NOp   1
 Omega: Change in point group or standard orientation.

 Old FWG=CS   [SG(C1H1Br1Cl1),X(H2)]
 New FWG=C01  [X(C1H3Br1Cl1)]
 Largest Abelian subgroup         C1      NOp   1
 Largest concise Abelian subgroup C1      NOp   1
                         Standard orientation:                         
 ---------------------------------------------------------------------
 Center     Atomic      Atomic             Coordinates (Angstroms)
 Number     Number       Type             X           Y           Z
 ---------------------------------------------------------------------
      1          6           0        0.284254   -0.004071   -0.000106
      2          1           0        0.610170   -0.562133    0.871125
      3          1           0        0.609509   -0.494134   -0.909560
      4          1           0        0.604687    1.030897    0.039034
      5         35           0       -1.647489    0.000774    0.000004
      6         17           0        3.184248    0.001337   -0.000006
 ---------------------------------------------------------------------
 Rotational constants (GHZ):         156.1732239           0.8849880           0.8849325
 Standard basis: STO-3G (5D, 7F)
 There are    36 symmetry adapted cartesian basis functions of A   symmetry.
 There are    35 symmetry adapted basis functions of A   symmetry.
    35 basis functions,   108 primitive gaussians,    36 cartesian basis functions
    31 alpha electrons       31 beta electrons
       nuclear repulsion energy       183.0899285442 Hartrees.
 NAtoms=    6 NActive=    6 NUniq=    6 SFac= 1.00D+00 NAtFMM=   60 NAOKFM=F Big=F
 Integral buffers will be    131072 words long.
 Raffenetti 1 integral format.
 Two-electron integral symmetry is turned on.
 One-electron integrals computed using PRISM.
 NBasis=    35 RedAO= T EigKep=  2.36D-01  NBF=    35
 NBsUse=    35 1.00D-06 EigRej= -1.00D+00 NBFU=    35
 Initial guess from the checkpoint file:  "C:\Users\chemistry\Documents\Gruppe H\inputOptimierung.chk"
 B after Tr=     0.000000    0.000000    0.000000
         Rot=    0.707286   -0.013352   -0.013344    0.706675 Ang= -89.97 deg.
 Keep R1 ints in memory in canonical form, NReq=1031173.
 Requested convergence on RMS density matrix=1.00D-08 within 128 cycles.
 Requested convergence on MAX density matrix=1.00D-06.
 Requested convergence on             energy=1.00D-06.
 No special actions if energy rises.
 SCF Done:  E(RHF) =  -3038.30193326     A.U. after    8 cycles
            NFock=  8  Conv=0.70D-08     -V/T= 2.0019
 Calling FoFJK, ICntrl=      2127 FMM=F ISym2X=0 I1Cent= 0 IOpClX= 0 NMat=1 NMatS=1 NMatT=0.
 ***** Axes restored to original set *****
 -------------------------------------------------------------------
 Center     Atomic                   Forces (Hartrees/Bohr)
 Number     Number              X              Y              Z
 -------------------------------------------------------------------
      1        6           0.001444443   -0.016594306    0.001271998
      2        1          -0.002920594    0.005879664   -0.001543440
      3        1          -0.002160389    0.006379330    0.000259959
      4        1           0.003125447    0.007614878    0.000005952
      5       35           0.000455394   -0.009798143    0.000007264
      6       17           0.000055699    0.006518577   -0.000001733
 -------------------------------------------------------------------
 Cartesian Forces:  Max     0.016594306 RMS     0.005659061

 GradGradGradGradGradGradGradGradGradGradGradGradGradGradGradGradGradGrad
 Berny optimization.
 FormGI is forming the generalized inverse of G from B-inverse, IUseBI=4.
 Internal  Forces:  Max     0.009796015 RMS     0.003467585
 Search for a local minimum.
 Step number   1 out of a maximum of   36 on scan point     2 out of    16
 All quantities printed in internal units (Hartrees-Bohrs-Radians)
 Mixed Optimization -- RFO/linear search
 Second derivative matrix not updated -- first step.
 ITU=  0
     Eigenvalues ---    0.01386   0.01398   0.03795   0.05420   0.05439
     Eigenvalues ---    0.10382   0.10690   0.28002   0.34616   0.35011
     Eigenvalues ---    0.397731000.000001000.000001000.000001000.00000
     Eigenvalues --- 1000.000001000.000001000.000001000.000001000.00000
     Eigenvalues --- 1000.000001000.000001000.000001000.000001000.00000
     Eigenvalues --- 1000.00000
 RFO step:  Lambda=-1.81523878D-03 EMin= 1.38567452D-02
 Linear search not attempted -- first point.
 Iteration  1 RMS(Cart)=  0.02120024 RMS(Int)=  0.00101055
 Iteration  2 RMS(Cart)=  0.00048819 RMS(Int)=  0.00086106
 Iteration  3 RMS(Cart)=  0.00000021 RMS(Int)=  0.00086106
 Iteration  1 RMS(Cart)=  0.00002734 RMS(Int)=  0.00005270
 Iteration  2 RMS(Cart)=  0.00001531 RMS(Int)=  0.00005884
 Iteration  3 RMS(Cart)=  0.00000857 RMS(Int)=  0.00006665
 Iteration  4 RMS(Cart)=  0.00000480 RMS(Int)=  0.00007197
 Iteration  5 RMS(Cart)=  0.00000269 RMS(Int)=  0.00007517
 Iteration  6 RMS(Cart)=  0.00000150 RMS(Int)=  0.00007703
 Iteration  7 RMS(Cart)=  0.00000084 RMS(Int)=  0.00007808
 Variable       Old X    -DE/DX   Delta X   Delta X   Delta X     New X
                                 (Linear)    (Quad)   (Total)
    R1        2.04989  -0.00078   0.00000  -0.00183  -0.00170   2.04819
    R2        2.04672   0.00108   0.00000   0.00234   0.00248   2.04920
    R3        2.04874  -0.00049   0.00000  -0.00097  -0.00082   2.04792
    R4        3.65048   0.00980   0.00000   0.01562   0.01562   3.66610
    R5        5.48020   0.00741   0.00000   0.00000   0.00000   5.48020
    R6        5.24454  -0.00017   0.00000  -0.07512  -0.07549   5.16905
    R7        5.24448  -0.00014   0.00000  -0.07514  -0.07549   5.16898
    R8        5.24911  -0.00093   0.00000  -0.07380  -0.07410   5.17501
    A1        1.92986  -0.00084   0.00000  -0.01777  -0.02006   1.90981
    A2        1.95339  -0.00444   0.00000  -0.04144  -0.04277   1.91061
    A3        1.87726   0.00277   0.00000   0.03249   0.03275   1.91002
    A4        1.95358  -0.00454   0.00000  -0.04153  -0.04287   1.91071
    A5        1.87705   0.00287   0.00000   0.03273   0.03302   1.91007
    A6        1.86833   0.00503   0.00000   0.04431   0.04425   1.91258
    A7        0.65367  -0.00013   0.00000   0.00562   0.00522   0.65889
    A8        0.65918  -0.00117   0.00000  -0.00034  -0.00071   0.65847
    A9        0.65870  -0.00088   0.00000   0.00034  -0.00004   0.65867
   A10        3.14387  -0.00065   0.00000  -0.00420  -0.00411   3.13976
   A11        3.14551  -0.00110   0.00000  -0.00735  -0.00727   3.13824
    D1        2.17776  -0.00803   0.00000  -0.08740  -0.08434   2.09342
    D2       -2.07901  -0.00204   0.00000  -0.01415  -0.01365  -2.09266
    D3        2.10203  -0.00099   0.00000  -0.00708  -0.00684   2.09519
    D4       -2.10214   0.00105   0.00000   0.00707   0.00681  -2.09533
    D5        0.56527  -0.00118   0.00000  -0.00862  -0.00865   0.55661
    D6       -0.55181  -0.00063   0.00000  -0.00503  -0.00498  -0.55679
    D7        0.55212   0.00044   0.00000   0.00449   0.00445   0.55658
         Item               Value     Threshold  Converged?
 Maximum Force            0.009796     0.000450     NO 
 RMS     Force            0.002732     0.000300     NO 
 Maximum Displacement     0.048695     0.001800     NO 
 RMS     Displacement     0.021292     0.001200     NO 
 Predicted change in Energy=-9.381663D-04
 GradGradGradGradGradGradGradGradGradGradGradGradGradGradGradGradGradGrad

                          Input orientation:                          
 ---------------------------------------------------------------------
 Center     Atomic      Atomic             Coordinates (Angstroms)
 Number     Number       Type             X           Y           Z
 ---------------------------------------------------------------------
      1          6           0       -0.001401    0.300556    0.000062
      2          1           0        0.510082    0.661659    0.884784
      3          1           0        0.510369    0.661868   -0.885066
      4          1           0       -1.022737    0.662913    0.000107
      5         35           0        0.000250   -1.639459    0.000091
      6         17           0        0.006727    3.200544    0.000022
 ---------------------------------------------------------------------
                    Distance matrix (angstroms):
                    1          2          3          4          5
     1  C    0.000000
     2  H    1.083855   0.000000
     3  H    1.084392   1.769851   0.000000
     4  H    1.083711   1.769799   1.770296   0.000000
     5  Br   1.940016   2.517490   2.517901   2.519408   0.000000
     6  Cl   2.899999   2.735343   2.735309   2.738498   4.840007
                    6
     6  Cl   0.000000
 Stoichiometry    CH3BrCl(1-)
 Framework group  C1[X(CH3BrCl)]
 Deg. of freedom    12
 Full point group                 C1      NOp   1
 Largest Abelian subgroup         C1      NOp   1
 Largest concise Abelian subgroup C1      NOp   1
                         Standard orientation:                         
 ---------------------------------------------------------------------
 Center     Atomic      Atomic             Coordinates (Angstroms)
 Number     Number       Type             X           Y           Z
 ---------------------------------------------------------------------
      1          6           0        0.287143    0.003140   -0.001786
      2          1           0        0.648888   -0.002217    1.019906
      3          1           0        0.649125   -0.879629   -0.517143
      4          1           0        0.648186    0.890644   -0.508161
      5         35           0       -1.652869   -0.000459    0.000266
      6         17           0        3.187138   -0.000680    0.000401
 ---------------------------------------------------------------------
 Rotational constants (GHZ):         160.0523939           0.8816495           0.8816475
 Standard basis: STO-3G (5D, 7F)
 There are    36 symmetry adapted cartesian basis functions of A   symmetry.
 There are    35 symmetry adapted basis functions of A   symmetry.
    35 basis functions,   108 primitive gaussians,    36 cartesian basis functions
    31 alpha electrons       31 beta electrons
       nuclear repulsion energy       182.5587751328 Hartrees.
 NAtoms=    6 NActive=    6 NUniq=    6 SFac= 1.00D+00 NAtFMM=   60 NAOKFM=F Big=F
 Integral buffers will be    131072 words long.
 Raffenetti 1 integral format.
 Two-electron integral symmetry is turned on.
 One-electron integrals computed using PRISM.
 NBasis=    35 RedAO= T EigKep=  2.34D-01  NBF=    35
 NBsUse=    35 1.00D-06 EigRej= -1.00D+00 NBFU=    35
 Initial guess from the checkpoint file:  "C:\Users\chemistry\Documents\Gruppe H\inputOptimierung.chk"
 B after Tr=     0.000000    0.000000    0.000000
         Rot=    0.961565    0.274576    0.000006    0.000014 Ang=  31.87 deg.
 ExpMin= 1.69D-01 ExpMax= 2.63D+03 ExpMxC= 2.63D+03 IAcc=3 IRadAn=         5 AccDes= 0.00D+00
 Harris functional with IExCor=  205 and IRadAn=       5 diagonalized for initial guess.
 HarFok:  IExCor=  205 AccDes= 0.00D+00 IRadAn=         5 IDoV= 1 UseB2=F ITyADJ=14
 ICtDFT=  3500011 ScaDFX=  1.000000  1.000000  1.000000  1.000000
 FoFCou: FMM=F IPFlag=           0 FMFlag=      100000 FMFlg1=           0
         NFxFlg=           0 DoJE=T BraDBF=F KetDBF=T FulRan=T
         wScrn=  0.000000 ICntrl=       500 IOpCl=  0 I1Cent=   200000004 NGrid=           0
         NMat0=    1 NMatS0=      1 NMatT0=    0 NMatD0=    1 NMtDS0=    0 NMtDT0=    0
 Petite list used in FoFCou.
 Keep R1 ints in memory in canonical form, NReq=1031218.
 Requested convergence on RMS density matrix=1.00D-08 within 128 cycles.
 Requested convergence on MAX density matrix=1.00D-06.
 Requested convergence on             energy=1.00D-06.
 No special actions if energy rises.
 SCF Done:  E(RHF) =  -3038.30289124     A.U. after    8 cycles
            NFock=  8  Conv=0.50D-08     -V/T= 2.0019
 Calling FoFJK, ICntrl=      2127 FMM=F ISym2X=0 I1Cent= 0 IOpClX= 0 NMat=1 NMatS=1 NMatT=0.
 ***** Axes restored to original set *****
 -------------------------------------------------------------------
 Center     Atomic                   Forces (Hartrees/Bohr)
 Number     Number              X              Y              Z
 -------------------------------------------------------------------
      1        6           0.000714285   -0.009708098   -0.000390275
      2        1           0.000076376    0.000703587    0.000230239
      3        1          -0.000174883    0.000537140    0.000175531
      4        1          -0.000447780    0.000539880   -0.000014435
      5       35          -0.000170883    0.000891684   -0.000001768
      6       17           0.000002886    0.007035807    0.000000707
 -------------------------------------------------------------------
 Cartesian Forces:  Max     0.009708098 RMS     0.002854164

 GradGradGradGradGradGradGradGradGradGradGradGradGradGradGradGradGradGrad
 Berny optimization.
[...]
 
                     E (Thermal)             CV                S
                      KCal/Mol        Cal/Mol-Kelvin    Cal/Mol-Kelvin
 Total                   32.239              8.314             70.294
 Electronic               0.000              0.000              0.000
 Translational            0.889              2.981             40.475
 Rotational               0.889              2.981             25.526
 Vibrational             30.461              2.352              4.293
 Vibration     1          0.598              1.970              4.229
                       Q            Log10(Q)             Ln(Q)
 Total Bot       0.198219D-08         -8.702855        -20.039063
 Total V=0       0.176021D+14         13.245566         30.499042
 Vib (Bot)       0.407477D-21        -21.389897        -49.252059
 Vib (Bot)    1  0.306296D+01          0.486141          1.119381
 Vib (V=0)       0.361845D+01          0.558523          1.286046
 Vib (V=0)    1  0.360350D+01          0.556724          1.281905
 Electronic      0.100000D+01          0.000000          0.000000
 Translational   0.575290D+08          7.759887         17.867800
 Rotational      0.845582D+05          4.927156         11.345195
 ***** Axes restored to original set *****
 -------------------------------------------------------------------
 Center     Atomic                   Forces (Hartrees/Bohr)
 Number     Number              X              Y              Z
 -------------------------------------------------------------------
      1        6          -0.002200926   -0.377661153   -0.000343325
      2        1          -0.000001261   -0.000033291   -0.000010941
      3        1          -0.000004478   -0.000007011   -0.000005724
      4        1           0.000001707    0.000018148   -0.000011215
      5       35           0.000010592    0.000000353    0.000002332
      6       17           0.002194367    0.377682953    0.000368874
 -------------------------------------------------------------------
 Cartesian Forces:  Max     0.377682953 RMS     0.125892872
 FormGI is forming the generalized inverse of G from B-inverse, IUseBI=4.

 GradGradGradGradGradGradGradGradGradGradGradGradGradGradGradGradGradGrad
 Berny optimization.
 Internal  Forces:  Max     0.169331993 RMS     0.049595961
 Search for a local minimum.
 Step number   1 out of a maximum of    2 on scan point     1 out of    16
 All quantities printed in internal units (Hartrees-Bohrs-Radians)
 Second derivative matrix not updated -- analytic derivatives used.
 ITU=  0
     Eigenvalues ---   -0.00426   0.00525   0.00549   0.03184   0.03667
     Eigenvalues ---    0.06580   0.09322   0.10615   0.31026   0.35546
     Eigenvalues ---    0.391531000.000001000.000001000.000001000.00000
     Eigenvalues --- 1000.000001000.000001000.000001000.000001000.00000
     Eigenvalues --- 1000.000001000.000001000.000001000.000001000.00000
     Eigenvalues --- 1000.00000
 Eigenvalue     1 is  -4.26D-03 should be greater than     0.000000 Eigenvector:
                          A6        A11       D2        A5        A3
   1                    0.54049  -0.51482  -0.34162  -0.29229  -0.29187
                          A10       D3        D4        A1        D1
   1                   -0.27035  -0.17245   0.16917  -0.09460   0.08853
 Angle between quadratic step and forces=  41.59 degrees.
 Linear search not attempted -- first point.
 Iteration  1 RMS(Cart)=  0.00315809 RMS(Int)=  0.00000887
 Iteration  2 RMS(Cart)=  0.00000472 RMS(Int)=  0.00000280
 Iteration  3 RMS(Cart)=  0.00000000 RMS(Int)=  0.00000280
 Iteration  1 RMS(Cart)=  0.00000002 RMS(Int)=  0.00000004
 Variable       Old X    -DE/DX   Delta X   Delta X   Delta X     New X
                                 (Linear)    (Quad)   (Total)
    R1        2.05534  -0.05193   0.00000  -0.00001  -0.00001   2.05533
    R2        2.05532  -0.05255   0.00000   0.00002   0.00002   2.05534
    R3        2.05532  -0.04784   0.00000  -0.00004  -0.00004   2.05528
    R4        6.54197   0.00000   0.00000  -0.00016  -0.00016   6.54181
    R5        2.83459   0.16933   0.00000   0.00000   0.00000   2.83459
    R6        4.13727   0.07432   0.00000   0.00061   0.00061   4.13788
    R7        4.13738   0.07472   0.00000   0.00017   0.00017   4.13755
    R8        4.13688   0.06939   0.00000  -0.00014  -0.00014   4.13674
    A1        1.81225   0.02495   0.00000  -0.00094  -0.00094   1.81130
    A2        1.81254   0.04046   0.00000   0.00019   0.00020   1.81274
    A3        1.13622   0.02707   0.00000  -0.00329  -0.00329   1.13293
    A4        1.81275   0.04036   0.00000   0.00014   0.00015   1.81290
    A5        1.13879   0.02689   0.00000  -0.00218  -0.00217   1.13661
    A6        1.14751   0.03633   0.00000   0.00497   0.00497   1.15248
    A7        0.80348  -0.02860   0.00000  -0.00039  -0.00039   0.80309
    A8        0.80364  -0.02192   0.00000   0.00001   0.00001   0.80364
    A9        0.80369  -0.02213   0.00000   0.00004   0.00004   0.80373
   A10        3.13704  -0.00117   0.00000  -0.00281  -0.00281   3.13424
   A11        3.13629  -0.00143   0.00000  -0.00444  -0.00444   3.13185
    D1       -1.89074  -0.05468   0.00000   0.00090   0.00090  -1.88983
    D2       -2.09936   0.00943   0.00000  -0.00313  -0.00313  -2.10249
    D3        2.09278   0.00463   0.00000  -0.00110  -0.00111   2.09167
    D4       -2.09105  -0.00479   0.00000   0.00203   0.00203  -2.08902
    D5        0.57438   0.00169   0.00000   0.00049   0.00049   0.57487
    D6       -0.57445   0.00387   0.00000   0.00019   0.00019  -0.57426
    D7        0.57428  -0.00389   0.00000  -0.00007  -0.00008   0.57421
         Item               Value     Threshold  Converged?
 Maximum Force            0.000024     0.000450     YES
 RMS     Force            0.000011     0.000300     YES
 Maximum Displacement     0.007961     0.001800     NO 
 RMS     Displacement     0.003159     0.001200     NO 
 Predicted change in Energy=-5.061347D-07
                           ----------------------------
                           ! Non-Optimized Parameters !
                           ! (Angstroms and Degrees)  !
 --------------------------                            --------------------------
 ! Name  Definition              Value          Derivative Info.                !
 --------------------------------------------------------------------------------
 ! R1    R(1,2)                  1.0876         -DE/DX =   -0.0519              !
 ! R2    R(1,3)                  1.0876         -DE/DX =   -0.0526              !
 ! R3    R(1,4)                  1.0876         -DE/DX =   -0.0478              !
 ! R4    R(1,5)                  3.4618         -DE/DX =    0.0                 !
 ! R5    R(1,6)                  1.5            -DE/DX =    0.1693              !
 ! R6    R(2,6)                  2.1897         -DE/DX =    0.0743              !
 ! R7    R(3,6)                  2.1895         -DE/DX =    0.0747              !
 ! R8    R(4,6)                  2.1891         -DE/DX =    0.0694              !
 ! A1    A(2,1,3)              103.7801         -DE/DX =    0.0249              !
 ! A2    A(2,1,4)              103.8624         -DE/DX =    0.0405              !
 ! A3    A(2,1,5)               64.9123         -DE/DX =    0.0271              !
 ! A4    A(3,1,4)              103.8713         -DE/DX =    0.0404              !
 ! A5    A(3,1,5)               65.1231         -DE/DX =    0.0269              !
 ! A6    A(4,1,5)               66.0321         -DE/DX =    0.0363              !
 ! A7    A(2,6,3)               46.0139         -DE/DX =   -0.0286              !
 ! A8    A(2,6,4)               46.0454         -DE/DX =   -0.0219              !
 ! A9    A(3,6,4)               46.0504         -DE/DX =   -0.0221              !
 ! A10   L(5,1,6,2,-1)         179.5786         -DE/DX =   -0.0012              !
 ! A11   L(5,1,6,2,-2)         179.4418         -DE/DX =   -0.0014              !
 ! D1    D(2,1,4,3)           -108.2795         -DE/DX =   -0.0547              !
 ! D2    D(2,1,5,3)           -120.464          -DE/DX =    0.0094              !
 ! D3    D(2,1,5,4)            119.8441         -DE/DX =    0.0046              !
 ! D4    D(3,1,5,4)           -119.6919         -DE/DX =   -0.0048              !
 ! D5    D(3,2,6,1)             32.9377         -DE/DX =    0.0017              !
 ! D6    D(4,2,6,1)            -32.9028         -DE/DX =    0.0039              !
 ! D7    D(4,3,6,1)             32.8997         -DE/DX =   -0.0039              !
 --------------------------------------------------------------------------------
 GradGradGradGradGradGradGradGradGradGradGradGradGradGradGradGradGradGrad


 ----------------------------------------------------------------------

 Electric dipole moment (input orientation):
 (Debye = 10**-18 statcoulomb cm , SI units = C m)
                  (au)            (Debye)         (10**-30 SI)
   Tot        0.271189D+01      0.689294D+01      0.229924D+02
   x         -0.979972D-03     -0.249084D-02     -0.830855D-02
   y          0.271189D+01      0.689294D+01      0.229924D+02
   z         -0.119995D-02     -0.304996D-02     -0.101736D-01

 Dipole polarizability, Alpha (input orientation).
 (esu units = cm**3 , SI units = C**2 m**2 J**-1)
 Alpha(0;0):
               (au)            (10**-24 esu)      (10**-40 SI)
   iso        0.737262D+01      0.109251D+01      0.121558D+01
   aniso      0.579512D+01      0.858749D+00      0.955487D+00
   xx         0.544283D+01      0.806545D+00      0.897402D+00
   yx         0.307513D-01      0.455687D-02      0.507021D-02
   yy         0.112359D+02      0.166498D+01      0.185254D+01
   zx        -0.447038D-03     -0.662441D-04     -0.737065D-04
   zy         0.527924D-02      0.782303D-03      0.870430D-03
   zz         0.543915D+01      0.805999D+00      0.896795D+00

 First dipole hyperpolarizability, Beta (input orientation).
 ||, _|_  parallel and perpendicular components, (z) with respect to z axis,
 vector components x,y,z.  Values do not include the 1/n! factor of 1/2.
 (esu units = statvolt**-1 cm**4 , SI units = C**3 m**3 J**-2)
 Beta(0;0,0):
               (au)            (10**-30 esu)      (10**-50 SI)
   || (z)    -0.134777D-01     -0.116436D-03     -0.432142D-04
   _|_(z)    -0.449255D-02     -0.388122D-04     -0.144047D-04
   x         -0.274708D+00     -0.237326D-02     -0.880812D-03
   y          0.384923D+01      0.332544D-01      0.123420D-01
   z         -0.673883D-01     -0.582182D-03     -0.216071D-03
   ||         0.771922D+00      0.666880D-02      0.247506D-02
   xxx       -0.297162D+01     -0.256725D-01     -0.952810D-02
   xxy       -0.392040D+01     -0.338692D-01     -0.125702D-01
   yxy        0.275888D-02      0.238346D-04      0.884597D-05
   yyy        0.915384D+01      0.790820D-01      0.293505D-01
   xxz       -0.370168D-02     -0.319797D-04     -0.118689D-04
   yxz       -0.200962D-02     -0.173615D-04     -0.644357D-05
   yyz       -0.702227D-02     -0.606670D-04     -0.225159D-04
   zxz        0.287729D+01      0.248576D-01      0.922565D-02
   zyz       -0.395036D+01     -0.341280D-01     -0.126663D-01
   zzz       -0.117388D-01     -0.101414D-03     -0.376389D-04

 ----------------------------------------------------------------------

 Dipole orientation:
     6          0.00091261         -0.00032329          2.25823623
     1          0.93035971         -1.61659345          1.39324596
     1          0.92928667          1.61897435          1.39781290
     1         -1.87278732         -0.00001203          1.41349085
    35          0.00265245         -0.00078508         -4.28373394
    17          0.01842225         -0.00447490          5.09276510

 Electric dipole moment (dipole orientation):
 (Debye = 10**-18 statcoulomb cm , SI units = C m)
                  (au)            (Debye)         (10**-30 SI)
   Tot        0.271189D+01      0.689294D+01      0.229924D+02
   x          0.000000D+00      0.000000D+00      0.000000D+00
   y          0.000000D+00      0.000000D+00      0.000000D+00
   z          0.271189D+01      0.689294D+01      0.229924D+02

 Dipole polarizability, Alpha (dipole orientation).
 (esu units = cm**3 , SI units = C**2 m**2 J**-1)
 Alpha(0;0):
               (au)            (10**-24 esu)      (10**-40 SI)
   iso        0.737262D+01      0.109251D+01      0.121558D+01
   aniso      0.579512D+01      0.858749D+00      0.955487D+00
   xx         0.544286D+01      0.806548D+00      0.897406D+00
   yx         0.431934D-03      0.640059D-04      0.712162D-04
   yy         0.543916D+01      0.806000D+00      0.896796D+00
   zx         0.328477D-01      0.486753D-02      0.541585D-02
   zy        -0.783243D-02     -0.116065D-02     -0.129139D-02
   zz         0.112358D+02      0.166498D+01      0.185254D+01

 First dipole hyperpolarizability, Beta (dipole orientation).
 ||, _|_  parallel and perpendicular components, (z) with respect to z axis,
 vector components x,y,z.  Values do not include the 1/n! factor of 1/2.
 (esu units = statvolt**-1 cm**4 , SI units = C**3 m**3 J**-2)
 Beta(0;0,0):
               (au)            (10**-30 esu)      (10**-50 SI)
   || (z)     0.769872D+00      0.665109D-02      0.246849D-02
   _|_(z)     0.256624D+00      0.221703D-02      0.822829D-03
   x         -0.273340D+00     -0.236145D-02     -0.876428D-03
   y          0.655863D-01      0.566614D-03      0.210293D-03
   z          0.384936D+01      0.332555D-01      0.123424D-01
   ||         0.771922D+00      0.666880D-02      0.247506D-02
   xxx       -0.297588D+01     -0.257093D-01     -0.954174D-02
   xxy        0.228353D-02      0.197279D-04      0.732181D-05
   yxy        0.287586D+01      0.248452D-01      0.922105D-02
   yyy        0.201017D-01      0.173663D-03      0.644532D-04
   xxz       -0.391932D+01     -0.338599D-01     -0.125668D-01
   yxz        0.329097D-02      0.284314D-04      0.105520D-04
   yyz       -0.395139D+01     -0.341369D-01     -0.126696D-01
   zxz        0.890222D-02      0.769083D-04      0.285437D-04
   zyz       -0.523110D-03     -0.451926D-05     -0.167728D-05
   zzz        0.915384D+01      0.790820D-01      0.293505D-01

 ----------------------------------------------------------------------
 Unable to Open any file for archive entry.
 1|1|UNPC-LAPTOP-PP56KN09|Freq|RHF|STO-3G|C1H3Br1Cl1(1-)|CHEMISTRY|01-D
 ec-2022|0||#N Geom=AllCheck Guess=TCheck SCRF=Check GenChk RHF/STO-3G 
 Freq||Title Card Required||-1,1|C,0.0000510406,1.1950072048,-0.0003575
 081|H,0.4917494003,0.7378302859,0.8553159546|H,0.4917996913,0.73948942
 36,-0.8568737825|H,-0.9913065362,0.7476287442,-0.0006827236|Br,0.00222
 26193,-2.2668533174,0.0014189816|Cl,0.0087739157,2.6949793628,0.001179
 0781||Version=EM64W-G16RevC.01|State=1-A|HF=-3038.1786755|RMSD=2.563e-
 010|RMSF=1.259e-001|ZeroPoint=0.0477173|Thermal=0.0513753|ETot=-3038.1
 273002|HTot=-3038.126356|GTot=-3038.1597549|Dipole=-0.00098,2.7118905,
 -0.0011999|DipoleDeriv=0.0583962,0.0035557,-0.0000681,0.0033228,0.5657
 044,0.0005931,-0.000068,0.0006508,0.0578355,0.0809565,0.0294048,-0.052
 835,-0.0269401,0.0509197,-0.0458134,-0.0526191,0.0521677,0.0197987,0.0
 807985,0.0292637,0.0528877,-0.0269852,0.0502314,0.0456756,0.0526687,-0
 .0522782,0.0195231,-0.0120324,-0.0599435,-0.0000205,0.052792,0.0479188
 ,-0.0001102,-0.0000175,-0.0001734,0.1107034,-0.972899,-0.0003753,0.000
 0174,0.0000162,-1.0903794,0.0000444,0.0000173,-0.0000417,-0.9727374,-0
 .2352197,-0.0019054,0.0000186,-0.0022058,-0.6243948,-0.0003895,0.00001
 87,-0.0003252,-0.2351234|Polar=5.4428345,0.0307513,11.2358651,-0.00044
 7,0.0052792,5.4391521|PolarDeriv=1.6238732,2.0003353,-0.0295214,0.0015
 329,0.0014336,-1.583979,1.1552337,-0.0166562,-0.4533392,0.0014637,-0.0
 029713,1.1730367,0.0011041,0.0014314,-0.0051953,-1.5792071,2.0180965,0
 .0045074,1.6961857,-1.4608936,0.4146558,1.7918164,-0.1609481,0.4970811
 ,-0.2357483,1.0755446,-2.8785127,-0.0318156,1.8686486,-0.2788713,0.120
 9493,-0.1591498,0.715982,1.454937,-1.6542278,3.7078665,1.696473,-1.457
 6619,0.413342,-1.7947622,0.1606731,0.4978234,-0.2355753,1.0761043,-2.8
 601765,0.0313881,-1.870252,-0.2797045,-0.1215204,0.158536,-0.712911,1.
 4556297,-1.6522872,-3.7149816,-4.7397701,-1.728197,-0.8110134,-0.00133
 75,-0.0009321,0.2854956,-0.2951048,-2.1655186,-2.7850766,-0.0006433,-0
 .0002154,-0.2214265,-0.0002086,-0.0005907,0.0004278,-1.6526008,-1.3552
 302,-0.0025047,0.0135146,-0.0395055,0.0050864,-0.0000255,0.0001737,-0.
 0136861,-0.015283,0.0028044,0.9735348,-0.0000556,0.0002638,-0.0157349,
 0.0000244,0.0001743,0.0007457,-0.0139468,-0.0378347,-0.0000246,-0.2902
 764,2.6859228,0.0074506,0.0027759,-0.0004002,0.317265,-0.3735222,0.027
 7214,8.0035702,-0.0003373,0.0045263,-0.3772995,-0.0003487,-0.0004013,0
 .0009509,0.3351881,2.6814834,0.005137|HyperPolar=-2.9716228,-3.9204033
 ,0.0027589,9.1538381,-0.0037017,-0.0020096,-0.0070223,2.8772947,-3.950
 3576,-0.0117388|Quadrupole=6.6554825,-13.3126065,6.657124,-0.0313369,0
 .0001037,-0.0001253|PG=C01 [X(C1H3Br1Cl1)]|NImag=2||0.67628094,0.00427
 781,1.42894214,-0.00005033,0.00077639,0.67611556,-0.16080183,0.0734519
 8,-0.13582301,0.15414967,0.06606663,-0.13216916,0.11489976,-0.07248208
 ,0.15131364,-0.13577249,0.12767646,-0.31899962,0.14600341,-0.12632919,
 0.32418361,-0.16081478,0.07319355,0.13598143,0.01307406,-0.00925515,-0
 .02234847,0.15415059,0.06580504,-0.13172708,-0.11453892,-0.00929649,0.
 00868604,0.01319453,-0.07219773,0.15086246,0.13591616,-0.12731169,-0.3
 1944505,0.02233570,-0.01313731,-0.02316083,-0.14616209,0.12600089,0.32
 464849,-0.39970089,-0.14461612,-0.00010225,-0.01402550,-0.00654751,0.0
 0668432,-0.01401466,-0.00653318,-0.00670110,0.41088112,-0.12983351,-0.
 12951231,-0.00003919,0.01608103,0.00853453,-0.00152793,0.01601122,0.00
 850355,0.00153585,0.14305695,0.14868457,-0.00008744,-0.00003374,-0.082
 73404,-0.03822506,-0.01431188,0.00408669,0.03825293,0.01432058,0.00411
 420,0.00010343,0.00007452,0.07015584,-0.00004242,-0.00002690,-0.000002
 17,-0.00051205,0.00075017,0.00056958,-0.00050839,0.00074406,-0.0005679
 1,0.00048162,-0.00146622,0.00000160,-0.00021486,-0.00001577,-0.0027329
 0,-0.00000258,0.00085547,0.00103706,0.00150521,0.00084572,0.00102432,-
 0.00149676,-0.00167730,0.00098810,-0.00000411,-0.00000807,0.00534282,-
 0.00000218,-0.00000511,-0.00006249,0.00056753,0.00130750,0.00015052,-0
 .00056525,-0.00130074,0.00015510,0.00000098,-0.00000180,-0.00081442,-0
 .00000184,-0.00000381,-0.00023195,0.04507898,-0.00628032,-0.00000367,0
 .00811564,0.02146794,0.00486366,0.00811316,0.02147831,-0.00482075,0.01
 637831,-0.04384946,-0.00004547,0.00079610,-0.00000004,0.00000075,-0.07
 848219,-0.00630020,-1.03280070,-0.00109547,-0.00860990,-0.03740212,-0.
 01451908,-0.00859761,-0.03734929,0.01440901,0.01631717,-0.03719844,-0.
 00004537,0.00000696,-0.00565941,0.00000396,0.00718358,1.15040995,-0.00
 000373,-0.00110231,0.04512564,0.00514143,0.03757112,0.01373963,-0.0051
 5856,-0.03767635,0.01368808,0.00001462,-0.00004145,0.00519173,0.000000
 75,0.00000204,0.00080324,0.00000547,0.00124695,-0.07854832||0.00220093
 ,0.37766115,0.00034333,0.00000126,0.00003329,0.00001094,0.00000448,0.0
 0000701,0.00000572,-0.00000171,-0.00001815,0.00001122,-0.00001059,-0.0
 0000035,-0.00000233,-0.00219437,-0.37768295,-0.00036887|||@
 The archive entry for this job was punched.


 Happiness is a conscious choice, not an automatic response.
 -- Mildred Barthel
 Job cpu time:       0 days  0 hours  0 minutes  3.0 seconds.
 Elapsed time:       0 days  0 hours  0 minutes  2.0 seconds.
 File lengths (MBytes):  RWF=      6 Int=      0 D2E=      0 Chk=      2 Scr=      1
 Normal termination of Gaussian 16 at Thu Dec 01 10:57:25 2022.
