 Entering Link 1 = C:\G16W\l1.exe PID=      4844.
  
 Copyright (c) 1988-2019, Gaussian, Inc.  All Rights Reserved.
  
 This is part of the Gaussian(R) 16 program.  It is based on
 the Gaussian(R) 09 system (copyright 2009, Gaussian, Inc.),
 the Gaussian(R) 03 system (copyright 2003, Gaussian, Inc.),
 the Gaussian(R) 98 system (copyright 1998, Gaussian, Inc.),
 the Gaussian(R) 94 system (copyright 1995, Gaussian, Inc.),
 the Gaussian 92(TM) system (copyright 1992, Gaussian, Inc.),
 the Gaussian 90(TM) system (copyright 1990, Gaussian, Inc.),
 the Gaussian 88(TM) system (copyright 1988, Gaussian, Inc.),
 the Gaussian 86(TM) system (copyright 1986, Carnegie Mellon
 University), and the Gaussian 82(TM) system (copyright 1983,
 Carnegie Mellon University). Gaussian is a federally registered
 trademark of Gaussian, Inc.
  
 This software contains proprietary and confidential information,
 including trade secrets, belonging to Gaussian, Inc.
  
 This software is provided under written license and may be
 used, copied, transmitted, or stored only in accord with that
 written license.
  
 The following legend is applicable only to US Government
 contracts under FAR:
  
                    RESTRICTED RIGHTS LEGEND
  
 Use, reproduction and disclosure by the US Government is
 subject to restrictions as set forth in subparagraphs (a)
 and (c) of the Commercial Computer Software - Restricted
 Rights clause in FAR 52.227-19.
  
 Gaussian, Inc.
 340 Quinnipiac St., Bldg. 40, Wallingford CT 06492
  
  
 ---------------------------------------------------------------
 Warning -- This program may not be used in any manner that
 competes with the business of Gaussian, Inc. or will provide
 assistance to any competitor of Gaussian, Inc.  The licensee
 of this program is prohibited from giving any competitor of
 Gaussian, Inc. access to this program.  By using this program,
 the user acknowledges that Gaussian, Inc. is engaged in the
 business of creating and licensing software in the field of
 computational chemistry and represents and warrants to the
 licensee that it is not a competitor of Gaussian, Inc. and that
 it will not use this program in any manner prohibited above.
 ---------------------------------------------------------------
  

 Cite this work as:
 Gaussian 16, Revision C.01,
 M. J. Frisch, G. W. Trucks, H. B. Schlegel, G. E. Scuseria, 
 M. A. Robb, J. R. Cheeseman, G. Scalmani, V. Barone, 
 G. A. Petersson, H. Nakatsuji, X. Li, M. Caricato, A. V. Marenich, 
 J. Bloino, B. G. Janesko, R. Gomperts, B. Mennucci, H. P. Hratchian, 
 J. V. Ortiz, A. F. Izmaylov, J. L. Sonnenberg, D. Williams-Young, 
 F. Ding, F. Lipparini, F. Egidi, J. Goings, B. Peng, A. Petrone, 
 T. Henderson, D. Ranasinghe, V. G. Zakrzewski, J. Gao, N. Rega, 
 G. Zheng, W. Liang, M. Hada, M. Ehara, K. Toyota, R. Fukuda, 
 J. Hasegawa, M. Ishida, T. Nakajima, Y. Honda, O. Kitao, H. Nakai, 
 T. Vreven, K. Throssell, J. A. Montgomery, Jr., J. E. Peralta, 
 F. Ogliaro, M. J. Bearpark, J. J. Heyd, E. N. Brothers, K. N. Kudin, 
 V. N. Staroverov, T. A. Keith, R. Kobayashi, J. Normand, 
 K. Raghavachari, A. P. Rendell, J. C. Burant, S. S. Iyengar, 
 J. Tomasi, M. Cossi, J. M. Millam, M. Klene, C. Adamo, R. Cammi, 
 J. W. Ochterski, R. L. Martin, K. Morokuma, O. Farkas, 
 J. B. Foresman, and D. J. Fox, Gaussian, Inc., Wallingford CT, 2019.
 
 ******************************************
 Gaussian 16:  EM64W-G16RevC.01 30-May-2019
                01-Dec-2022 
 ******************************************
 %chk=C:\Users\chemistry\Documents\Gruppe H\inputOptimierung3.chk
 --------------------------------------
 # opt freq hf/sto-3g geom=connectivity
 --------------------------------------
 1/18=20,19=15,38=1,57=2/1,3;
 2/9=110,12=2,17=6,18=5,40=1/2;
 3/6=3,11=9,25=1,30=1,71=1/1,2,3;
 4//1;
 5/5=2,38=5/2;
 6/7=2,8=2,9=2,10=2,28=1/1;
 7//1,2,3,16;
 1/18=20,19=15/3(2);
 2/9=110/2;
 99//99;
 2/9=110/2;
 3/6=3,11=9,25=1,30=1,71=1/1,2,3;
 4/5=5,16=3,69=1/1;
 5/5=2,38=5/2;
 7//1,2,3,16;
 1/18=20,19=15/3(-5);
 2/9=110/2;
 6/7=2,8=2,9=2,10=2,19=2,28=1/1;
 99/9=1/99;
 -------------------
 Title Card Required
 -------------------
 Symbolic Z-matrix:
 Charge = -1 Multiplicity = 1
 C                     1.24093  -0.00079   0. 
 H                     0.98087   0.51663  -0.89625 
 H                     0.98087   0.51663   0.89625 
 H                     0.98166  -1.03587   0. 
 Br                   -1.871     0.00008   0. 
 Cl                    3.24093   0.00027   0. 
 
 Add virtual bond connecting atoms Cl6        and C1         Dist= 3.78D+00.
 Add virtual bond connecting atoms Br5        and C1         Dist= 5.88D+00.
 Add virtual bond connecting atoms Br5        and H2         Dist= 5.73D+00.
 Add virtual bond connecting atoms Br5        and H3         Dist= 5.73D+00.
 Add virtual bond connecting atoms Br5        and H4         Dist= 5.74D+00.

 GradGradGradGradGradGradGradGradGradGradGradGradGradGradGradGradGradGrad
 Berny optimization.
 Initialization pass.
                           ----------------------------
                           !    Initial Parameters    !
                           ! (Angstroms and Degrees)  !
 --------------------------                            --------------------------
 ! Name  Definition              Value          Derivative Info.                !
 --------------------------------------------------------------------------------
 ! R1    R(1,2)                  1.0671         estimate D2E/DX2                !
 ! R2    R(1,3)                  1.0671         estimate D2E/DX2                !
 ! R3    R(1,4)                  1.0671         estimate D2E/DX2                !
 ! R4    R(1,5)                  3.1119         estimate D2E/DX2                !
 ! R5    R(1,6)                  2.0            estimate D2E/DX2                !
 ! R6    R(2,5)                  3.0337         estimate D2E/DX2                !
 ! R7    R(3,5)                  3.0337         estimate D2E/DX2                !
 ! R8    R(4,5)                  3.0349         estimate D2E/DX2                !
 ! A1    A(2,1,3)              114.2638         estimate D2E/DX2                !
 ! A2    A(2,1,4)              114.2772         estimate D2E/DX2                !
 ! A3    A(2,1,6)              104.0912         estimate D2E/DX2                !
 ! A4    A(3,1,4)              114.2772         estimate D2E/DX2                !
 ! A5    A(3,1,6)              104.0911         estimate D2E/DX2                !
 ! A6    A(4,1,6)              104.0927         estimate D2E/DX2                !
 ! A7    A(2,5,3)               34.367          estimate D2E/DX2                !
 ! A8    A(2,5,4)               34.3622         estimate D2E/DX2                !
 ! A9    A(3,5,4)               34.3622         estimate D2E/DX2                !
 ! A10   L(5,1,6,2,-1)         179.9769         estimate D2E/DX2                !
 ! A11   L(5,1,6,2,-2)         179.9587         estimate D2E/DX2                !
 ! D1    D(2,1,4,3)           -134.2646         estimate D2E/DX2                !
 ! D2    D(2,1,6,3)            119.9896         estimate D2E/DX2                !
 ! D3    D(2,1,6,4)           -120.0052         estimate D2E/DX2                !
 ! D4    D(3,1,6,4)            120.0052         estimate D2E/DX2                !
 ! D5    D(3,2,5,1)            -31.5528         estimate D2E/DX2                !
 ! D6    D(4,2,5,1)             31.5579         estimate D2E/DX2                !
 ! D7    D(4,3,5,1)            -31.5579         estimate D2E/DX2                !
 --------------------------------------------------------------------------------
 Trust Radius=3.00D-01 FncErr=1.00D-07 GrdErr=1.00D-07 EigMax=2.50D+02 EigMin=1.00D-04
 Number of steps in this run=     36 maximum allowed number of steps=    100.
 GradGradGradGradGradGradGradGradGradGradGradGradGradGradGradGradGradGrad

                          Input orientation:                          
 ---------------------------------------------------------------------
 Center     Atomic      Atomic             Coordinates (Angstroms)
 Number     Number       Type             X           Y           Z
 ---------------------------------------------------------------------
      1          6           0        1.240930   -0.000790    0.000000
      2          1           0        0.980865    0.516630   -0.896247
      3          1           0        0.980865    0.516630    0.896248
      4          1           0        0.981657   -1.035865    0.000000
      5         35           0       -1.870995    0.000081    0.000000
      6         17           0        3.240933    0.000265    0.000000
 ---------------------------------------------------------------------
                    Distance matrix (angstroms):
                    1          2          3          4          5
     1  C    0.000000
     2  H    1.067059   0.000000
     3  H    1.067060   1.792495   0.000000
     4  H    1.067053   1.792624   1.792624   0.000000
     5  Br   3.111925   3.033675   3.033676   3.034931   0.000000
     6  Cl   2.000003   2.485518   2.485518   2.485537   5.111928
                    6
     6  Cl   0.000000
 This structure is nearly, but not quite of a higher symmetry.
 Consider Symm=Loose if the higher symmetry is desired.
 Stoichiometry    CH3BrCl(1-)
 Framework group  C1[X(CH3BrCl)]
 Deg. of freedom    12
 Full point group                 C1      NOp   1
 Largest Abelian subgroup         C1      NOp   1
 Largest concise Abelian subgroup C1      NOp   1
                         Standard orientation:                         
 ---------------------------------------------------------------------
 Center     Atomic      Atomic             Coordinates (Angstroms)
 Number     Number       Type             X           Y           Z
 ---------------------------------------------------------------------
      1          6           0       -0.000002   -0.001242    1.240930
      2          1           0       -0.897095   -0.516767    0.980017
      3          1           0        0.895398   -0.519703    0.980018
      4          1           0        0.001694    1.034254    0.983352
      5         35           0        0.000005    0.002983   -1.870993
      6         17           0       -0.000009   -0.005573    3.240928
 ---------------------------------------------------------------------
 Rotational constants (GHZ):         156.0532543           0.7605760           0.7605756
 Standard basis: STO-3G (5D, 7F)
 There are    36 symmetry adapted cartesian basis functions of A   symmetry.
 There are    35 symmetry adapted basis functions of A   symmetry.
    35 basis functions,   108 primitive gaussians,    36 cartesian basis functions
    31 alpha electrons       31 beta electrons
       nuclear repulsion energy       163.2747689371 Hartrees.
 NAtoms=    6 NActive=    6 NUniq=    6 SFac= 1.00D+00 NAtFMM=   60 NAOKFM=F Big=F
 Integral buffers will be    131072 words long.
 Raffenetti 1 integral format.
 Two-electron integral symmetry is turned on.
 One-electron integrals computed using PRISM.
 NBasis=    35 RedAO= T EigKep=  2.34D-01  NBF=    35
 NBsUse=    35 1.00D-06 EigRej= -1.00D+00 NBFU=    35
 ExpMin= 1.69D-01 ExpMax= 2.63D+03 ExpMxC= 2.63D+03 IAcc=3 IRadAn=         5 AccDes= 0.00D+00
 Harris functional with IExCor=  205 and IRadAn=       5 diagonalized for initial guess.
 HarFok:  IExCor=  205 AccDes= 0.00D+00 IRadAn=         5 IDoV= 1 UseB2=F ITyADJ=14
 ICtDFT=  3500011 ScaDFX=  1.000000  1.000000  1.000000  1.000000
 FoFCou: FMM=F IPFlag=           0 FMFlag=      100000 FMFlg1=           0
         NFxFlg=           0 DoJE=T BraDBF=F KetDBF=T FulRan=T
         wScrn=  0.000000 ICntrl=       500 IOpCl=  0 I1Cent=   200000004 NGrid=           0
         NMat0=    1 NMatS0=      1 NMatT0=    0 NMatD0=    1 NMtDS0=    0 NMtDT0=    0
 Petite list used in FoFCou.
 Keep R1 ints in memory in canonical form, NReq=1030798.
 Requested convergence on RMS density matrix=1.00D-08 within 128 cycles.
 Requested convergence on MAX density matrix=1.00D-06.
 Requested convergence on             energy=1.00D-06.
 No special actions if energy rises.
 SCF Done:  E(RHF) =  -3038.25953617     A.U. after    9 cycles
            NFock=  9  Conv=0.19D-08     -V/T= 2.0018

 **********************************************************************

            Population analysis using the SCF Density.

 **********************************************************************

 Orbital symmetries:
       Occupied  (A) (A) (A) (A) (A) (A) (A) (A) (A) (A) (A) (A)
                 (A) (A) (A) (A) (A) (A) (A) (A) (A) (A) (A) (A)
                 (A) (A) (A) (A) (A) (A) (A)
       Virtual   (A) (A) (A) (A)
 The electronic state is 1-A.
 Alpha  occ. eigenvalues -- -483.88463-103.47764 -62.62446 -57.17240 -57.17227
 Alpha  occ. eigenvalues --  -57.17227 -10.99133 -10.17112  -8.60017  -7.61452
 Alpha  occ. eigenvalues --   -7.61027  -7.61027  -6.34551  -6.34471  -6.34471
 Alpha  occ. eigenvalues --   -1.69722  -1.69698  -1.69698  -1.69626  -1.69626
 Alpha  occ. eigenvalues --   -0.87071  -0.73260  -0.45163  -0.45158  -0.43936
 Alpha  occ. eigenvalues --   -0.28756  -0.23031  -0.23031   0.06829   0.06829
 Alpha  occ. eigenvalues --    0.06956
 Alpha virt. eigenvalues --    0.41560   0.82671   0.84285   0.84291
          Condensed to atoms (all electrons):
               1          2          3          4          5          6
     1  C    4.720616   0.389902   0.389902   0.389906   0.002832   0.177570
     2  H    0.389902   0.538528  -0.018667  -0.018662  -0.000281  -0.015769
     3  H    0.389902  -0.018667   0.538528  -0.018662  -0.000281  -0.015769
     4  H    0.389906  -0.018662  -0.018662   0.538594  -0.000282  -0.015769
     5  Br   0.002832  -0.000281  -0.000281  -0.000282  35.955549   0.000035
     6  Cl   0.177570  -0.015769  -0.015769  -0.015769   0.000035  17.216177
 Mulliken charges:
               1
     1  C   -0.070727
     2  H    0.124949
     3  H    0.124949
     4  H    0.124876
     5  Br  -0.957571
     6  Cl  -0.346475
 Sum of Mulliken charges =  -1.00000
 Mulliken charges with hydrogens summed into heavy atoms:
               1
     1  C    0.304046
     5  Br  -0.957571
     6  Cl  -0.346475
 Electronic spatial extent (au):  <R**2>=           1235.7470
 Charge=             -1.0000 electrons
 Dipole moment (field-independent basis, Debye):
    X=              0.0000    Y=             -0.0051    Z=              4.3560  Tot=              4.3560
 Quadrupole moment (field-independent basis, Debye-Ang):
   XX=            -35.9062   YY=            -35.9062   ZZ=            -70.4584
   XY=              0.0000   XZ=              0.0001   YZ=              0.0592
 Traceless Quadrupole moment (field-independent basis, Debye-Ang):
   XX=             11.5174   YY=             11.5174   ZZ=            -23.0348
   XY=              0.0000   XZ=              0.0001   YZ=              0.0592
 Octapole moment (field-independent basis, Debye-Ang**2):
  XXX=             -0.0036  YYY=              0.8237  ZZZ=            -72.0307  XYY=              0.0038
  XXY=             -0.7370  XXZ=            -13.5794  XZZ=              0.0001  YZZ=              0.0798
  YYZ=            -13.5762  XYZ=              0.0000
 Hexadecapole moment (field-independent basis, Debye-Ang**3):
 XXXX=            -36.3663 YYYY=            -36.3725 ZZZZ=          -1451.8580 XXXY=              0.0000
 XXXZ=             -0.0018 YYYX=              0.0000 YYYZ=              1.6506 ZZZX=              0.0022
 ZZZY=              1.3627 XXYY=            -12.1219 XXZZ=           -208.4617 YYZZ=           -208.4571
 XXYZ=             -0.3597 YYXZ=              0.0039 ZZXY=              0.0000
 N-N= 1.632747689371D+02 E-N=-7.625604582265D+03  KE= 3.032751769815D+03
 Calling FoFJK, ICntrl=      2127 FMM=F ISym2X=0 I1Cent= 0 IOpClX= 0 NMat=1 NMatS=1 NMatT=0.
 ***** Axes restored to original set *****
 -------------------------------------------------------------------
 Center     Atomic                   Forces (Hartrees/Bohr)
 Number     Number              X              Y              Z
 -------------------------------------------------------------------
      1        6           0.073592760    0.000080866    0.000000759
      2        1          -0.008567657    0.008873659   -0.015401357
      3        1          -0.008567454    0.008873244    0.015400624
      4        1          -0.008556244   -0.017785737   -0.000000016
      5       35           0.007275241   -0.000005180    0.000000000
      6       17          -0.055176646   -0.000036852   -0.000000011
 -------------------------------------------------------------------
 Cartesian Forces:  Max     0.073592760 RMS     0.023191831

 GradGradGradGradGradGradGradGradGradGradGradGradGradGradGradGradGradGrad
 Berny optimization.
 FormGI is forming the generalized inverse of G from B-inverse, IUseBI=4.
 Internal  Forces:  Max     0.055176658 RMS     0.012580800
 Search for a local minimum.
 Step number   1 out of a maximum of   36
 All quantities printed in internal units (Hartrees-Bohrs-Radians)
 Mixed Optimization -- RFO/linear search
 Second derivative matrix not updated -- first step.
 ITU=  0
     Eigenvalues ---    0.01219   0.01224   0.01656   0.04912   0.05938
     Eigenvalues ---    0.06375   0.10498   0.10677   0.15073   0.34809
     Eigenvalues ---    0.35257   0.35768
 RFO step:  Lambda=-2.09696324D-02 EMin= 1.21865832D-02
 Linear search not attempted -- first point.
 Maximum step size (   0.300) exceeded in Quadratic search.
    -- Step size scaled by   0.865
 Iteration  1 RMS(Cart)=  0.03701303 RMS(Int)=  0.01531436
 Iteration  2 RMS(Cart)=  0.01393350 RMS(Int)=  0.00007903
 Iteration  3 RMS(Cart)=  0.00000002 RMS(Int)=  0.00007903
 Variable       Old X    -DE/DX   Delta X   Delta X   Delta X     New X
                                 (Linear)    (Quad)   (Total)
    R1        2.01645   0.01797   0.00000   0.04044   0.04043   2.05688
    R2        2.01645   0.01789   0.00000   0.04042   0.04040   2.05685
    R3        2.01644   0.01770   0.00000   0.04042   0.04040   2.05684
    R4        5.88069  -0.00124   0.00000  -0.02863  -0.02848   5.85221
    R5        3.77946  -0.05518   0.00000  -0.27808  -0.27808   3.50138
    R6        5.73282  -0.00153   0.00000  -0.04350  -0.04355   5.68927
    R7        5.73282  -0.00152   0.00000  -0.04349  -0.04353   5.68928
    R8        5.73519  -0.00159   0.00000  -0.04379  -0.04383   5.69136
    A1        1.99428  -0.00048   0.00000  -0.00692  -0.00710   1.98718
    A2        1.99451  -0.00105   0.00000  -0.00863  -0.00875   1.98577
    A3        1.81673   0.00105   0.00000   0.01037   0.01038   1.82711
    A4        1.99451  -0.00104   0.00000  -0.00862  -0.00875   1.98577
    A5        1.81673   0.00105   0.00000   0.01037   0.01038   1.82711
    A6        1.81676   0.00119   0.00000   0.01036   0.01035   1.82711
    A7        0.59982   0.00557   0.00000   0.01571   0.01578   0.61560
    A8        0.59973   0.00543   0.00000   0.01538   0.01545   0.61519
    A9        0.59973   0.00542   0.00000   0.01538   0.01545   0.61518
   A10        3.14119  -0.00004   0.00000   0.00006   0.00006   3.14125
   A11        3.14087  -0.00007   0.00000   0.00011   0.00011   3.14099
    D1       -2.34336   0.00296   0.00000   0.02905   0.02882  -2.31454
    D2        2.09421   0.00038   0.00000   0.00127   0.00125   2.09546
    D3       -2.09449   0.00019   0.00000   0.00064   0.00062  -2.09386
    D4        2.09449  -0.00019   0.00000  -0.00064  -0.00062   2.09386
    D5       -0.55070  -0.00030   0.00000  -0.00083  -0.00087  -0.55157
    D6        0.55079   0.00059   0.00000   0.00179   0.00181   0.55260
    D7       -0.55079  -0.00060   0.00000  -0.00180  -0.00182  -0.55261
         Item               Value     Threshold  Converged?
 Maximum Force            0.055177     0.000450     NO 
 RMS     Force            0.012581     0.000300     NO 
 Maximum Displacement     0.221235     0.001800     NO 
 RMS     Displacement     0.049996     0.001200     NO 
 Predicted change in Energy=-1.124685D-02
 GradGradGradGradGradGradGradGradGradGradGradGradGradGradGradGradGradGrad

                          Input orientation:                          
 ---------------------------------------------------------------------
 Center     Atomic      Atomic             Coordinates (Angstroms)
 Number     Number       Type             X           Y           Z
 ---------------------------------------------------------------------
      1          6           0        1.271012   -0.000541    0.000003
      2          1           0        0.994827    0.525293   -0.912109
      3          1           0        0.994836    0.525286    0.912106
      4          1           0        0.995561   -1.053541    0.000004
      5         35           0       -1.825842    0.000144   -0.000003
      6         17           0        3.123861    0.000310    0.000000
 ---------------------------------------------------------------------
                    Distance matrix (angstroms):
                    1          2          3          4          5
     1  C    0.000000
     2  H    1.088453   0.000000
     3  H    1.088439   1.824215   0.000000
     4  H    1.088431   1.823367   1.823356   0.000000
     5  Br   3.096854   3.010631   3.010638   3.011738   0.000000
     6  Cl   1.852849   2.374939   2.374928   2.374923   4.949703
                    6
     6  Cl   0.000000
 Stoichiometry    CH3BrCl(1-)
 Framework group  C1[X(CH3BrCl)]
 Deg. of freedom    12
 Full point group                 C1      NOp   1
 Largest Abelian subgroup         C1      NOp   1
 Largest concise Abelian subgroup C1      NOp   1
                         Standard orientation:                         
 ---------------------------------------------------------------------
 Center     Atomic      Atomic             Coordinates (Angstroms)
 Number     Number       Type             X           Y           Z
 ---------------------------------------------------------------------
      1          6           0        1.274087    0.000007    0.000606
      2          1           0        0.997900   -0.915008   -0.520161
      3          1           0        0.997910    0.909179   -0.530272
      4          1           0        0.998637    0.005848    1.053590
      5         35           0       -1.822768   -0.000001   -0.000073
      6         17           0        3.126935   -0.000002   -0.000249
 ---------------------------------------------------------------------
 Rotational constants (GHZ):         150.7820597           0.8069899           0.8069872
 Standard basis: STO-3G (5D, 7F)
 There are    36 symmetry adapted cartesian basis functions of A   symmetry.
 There are    35 symmetry adapted basis functions of A   symmetry.
    35 basis functions,   108 primitive gaussians,    36 cartesian basis functions
    31 alpha electrons       31 beta electrons
       nuclear repulsion energy       168.0662844239 Hartrees.
 NAtoms=    6 NActive=    6 NUniq=    6 SFac= 1.00D+00 NAtFMM=   60 NAOKFM=F Big=F
 Integral buffers will be    131072 words long.
 Raffenetti 1 integral format.
 Two-electron integral symmetry is turned on.
 One-electron integrals computed using PRISM.
 NBasis=    35 RedAO= T EigKep=  2.41D-01  NBF=    35
 NBsUse=    35 1.00D-06 EigRej= -1.00D+00 NBFU=    35
 Initial guess from the checkpoint file:  "C:\Users\chemistry\Documents\Gruppe H\inputOptimierung3.chk"
 B after Tr=     0.000000    0.000000    0.000000
         Rot=    0.501383   -0.498612   -0.500569   -0.499432 Ang=-119.82 deg.
 ExpMin= 1.69D-01 ExpMax= 2.63D+03 ExpMxC= 2.63D+03 IAcc=3 IRadAn=         5 AccDes= 0.00D+00
 Harris functional with IExCor=  205 and IRadAn=       5 diagonalized for initial guess.
 HarFok:  IExCor=  205 AccDes= 0.00D+00 IRadAn=         5 IDoV= 1 UseB2=F ITyADJ=14
 ICtDFT=  3500011 ScaDFX=  1.000000  1.000000  1.000000  1.000000
 FoFCou: FMM=F IPFlag=           0 FMFlag=      100000 FMFlg1=           0
         NFxFlg=           0 DoJE=T BraDBF=F KetDBF=T FulRan=T
         wScrn=  0.000000 ICntrl=       500 IOpCl=  0 I1Cent=   200000004 NGrid=           0
         NMat0=    1 NMatS0=      1 NMatT0=    0 NMatD0=    1 NMtDS0=    0 NMtDT0=    0
 Petite list used in FoFCou.
 Keep R1 ints in memory in canonical form, NReq=1030918.
 Requested convergence on RMS density matrix=1.00D-08 within 128 cycles.
 Requested convergence on MAX density matrix=1.00D-06.
 Requested convergence on             energy=1.00D-06.
 No special actions if energy rises.
 SCF Done:  E(RHF) =  -3038.26919203     A.U. after    8 cycles
            NFock=  8  Conv=0.22D-08     -V/T= 2.0018
 Calling FoFJK, ICntrl=      2127 FMM=F ISym2X=0 I1Cent= 0 IOpClX= 0 NMat=1 NMatS=1 NMatT=0.
 ***** Axes restored to original set *****
 -------------------------------------------------------------------
 Center     Atomic                   Forces (Hartrees/Bohr)
 Number     Number              X              Y              Z
 -------------------------------------------------------------------
      1        6           0.021951346   -0.000115439   -0.000010708
      2        1          -0.009041375   -0.002327465    0.004229601
      3        1          -0.009044854   -0.002321184   -0.004218834
      4        1          -0.009009121    0.004769207   -0.000000061
      5       35           0.001551785   -0.000003986    0.000000023
      6       17           0.003592220   -0.000001133   -0.000000022
 -------------------------------------------------------------------
 Cartesian Forces:  Max     0.021951346 RMS     0.006712946

 GradGradGradGradGradGradGradGradGradGradGradGradGradGradGradGradGradGrad
 Berny optimization.
 Using GEDIIS/GDIIS optimizer.
 FormGI is forming the generalized inverse of G from B-inverse, IUseBI=4.
 Internal  Forces:  Max     0.009771698 RMS     0.003059522
 Search for a local minimum.
 Step number   2 out of a maximum of   36
 All quantities printed in internal units (Hartrees-Bohrs-Radians)
 Mixed Optimization -- RFO/linear search
 Update second derivatives using D2CorX and points    1    2
 DE= -9.66D-03 DEPred=-1.12D-02 R= 8.59D-01
 TightC=F SS=  1.41D+00  RLast= 3.01D-01 DXNew= 5.0454D-01 9.0421D-01
 Trust test= 8.59D-01 RLast= 3.01D-01 DXMaxT set to 5.05D-01
 ITU=  1  0
 Use linear search instead of GDIIS.
     Eigenvalues ---    0.01226   0.01232   0.01668   0.04661   0.05852
     Eigenvalues ---    0.06114   0.10446   0.10663   0.21103   0.34907
     Eigenvalues ---    0.35326   0.38366
 RFO step:  Lambda=-3.62621583D-03 EMin= 1.22572527D-02
 Quartic linear search produced a step of -0.02500.
 Iteration  1 RMS(Cart)=  0.02625194 RMS(Int)=  0.00269094
 Iteration  2 RMS(Cart)=  0.00132199 RMS(Int)=  0.00228474
 Iteration  3 RMS(Cart)=  0.00000092 RMS(Int)=  0.00228474
 Variable       Old X    -DE/DX   Delta X   Delta X   Delta X     New X
                                 (Linear)    (Quad)   (Total)
    R1        2.05688  -0.00193  -0.00101   0.00346   0.00285   2.05973
    R2        2.05685  -0.00172  -0.00101   0.00350   0.00275   2.05960
    R3        2.05684  -0.00183  -0.00101   0.00361   0.00306   2.05989
    R4        5.85221   0.00547   0.00071   0.05288   0.05434   5.90654
    R5        3.50138   0.00359   0.00695  -0.03902  -0.03207   3.46930
    R6        5.68927  -0.00250   0.00109  -0.07753  -0.07693   5.61234
    R7        5.68928  -0.00252   0.00109  -0.07754  -0.07694   5.61234
    R8        5.69136  -0.00277   0.00110  -0.07850  -0.07761   5.61375
    A1        1.98718  -0.00177   0.00018  -0.04814  -0.05413   1.93305
    A2        1.98577  -0.00355   0.00022  -0.05123  -0.05550   1.93026
    A3        1.82711   0.00350  -0.00026   0.06245   0.06269   1.88980
    A4        1.98577  -0.00357   0.00022  -0.05123  -0.05549   1.93027
    A5        1.82711   0.00352  -0.00026   0.06245   0.06268   1.88979
    A6        1.82711   0.00403  -0.00026   0.06238   0.06207   1.88918
    A7        0.61560  -0.00065  -0.00039  -0.00022  -0.00202   0.61358
    A8        0.61519  -0.00102  -0.00039  -0.00081  -0.00225   0.61294
    A9        0.61518  -0.00099  -0.00039  -0.00081  -0.00226   0.61292
   A10        3.14125  -0.00013   0.00000   0.00019   0.00033   3.14158
   A11        3.14099  -0.00024   0.00000   0.00032   0.00056   3.14155
    D1       -2.31454   0.00977  -0.00072   0.17429   0.16656  -2.14797
    D2        2.09546   0.00119  -0.00003   0.00240   0.00139   2.09685
    D3       -2.09386   0.00059  -0.00002   0.00120   0.00070  -2.09316
    D4        2.09386  -0.00060   0.00002  -0.00120  -0.00069   2.09317
    D5       -0.55157   0.00073   0.00002   0.00125   0.00080  -0.55077
    D6        0.55260   0.00027  -0.00005   0.00059   0.00013   0.55273
    D7       -0.55261  -0.00024   0.00005  -0.00059  -0.00014  -0.55275
         Item               Value     Threshold  Converged?
 Maximum Force            0.009772     0.000450     NO 
 RMS     Force            0.003060     0.000300     NO 
 Maximum Displacement     0.076464     0.001800     NO 
 RMS     Displacement     0.026697     0.001200     NO 
 Predicted change in Energy=-1.765437D-03
 GradGradGradGradGradGradGradGradGradGradGradGradGradGradGradGradGradGrad

                          Input orientation:                          
 ---------------------------------------------------------------------
 Center     Atomic      Atomic             Coordinates (Angstroms)
 Number     Number       Type             X           Y           Z
 ---------------------------------------------------------------------
      1          6           0        1.311475   -0.000092    0.000008
      2          1           0        0.969618    0.516274   -0.896940
      3          1           0        0.969642    0.516245    0.896900
      4          1           0        0.970301   -1.035374    0.000004
      5         35           0       -1.814134   -0.000100    0.000009
      6         17           0        3.147352   -0.000002    0.000020
 ---------------------------------------------------------------------
                    Distance matrix (angstroms):
                    1          2          3          4          5
     1  C    0.000000
     2  H    1.089961   0.000000
     3  H    1.089895   1.793841   0.000000
     4  H    1.090049   1.792239   1.792190   0.000000
     5  Br   3.125609   2.969922   2.969921   2.970668   0.000000
     6  Cl   1.835877   2.411141   2.411085   2.410715   4.961486
                    6
     6  Cl   0.000000
 Stoichiometry    CH3BrCl(1-)
 Framework group  C1[X(CH3BrCl)]
 Deg. of freedom    12
 Full point group                 C1      NOp   1
 Largest Abelian subgroup         C1      NOp   1
 Largest concise Abelian subgroup C1      NOp   1
                         Standard orientation:                         
 ---------------------------------------------------------------------
 Center     Atomic      Atomic             Coordinates (Angstroms)
 Number     Number       Type             X           Y           Z
 ---------------------------------------------------------------------
      1          6           0        1.298545   -0.000006   -0.000012
      2          1           0        0.956691   -0.903569   -0.504714
      3          1           0        0.956717    0.890121   -0.527931
      4          1           0        0.957364    0.013407    1.035180
      5         35           0       -1.827064    0.000001   -0.000027
      6         17           0        3.134422    0.000002   -0.000089
 ---------------------------------------------------------------------
 Rotational constants (GHZ):         156.0231638           0.8026911           0.8026861
 Standard basis: STO-3G (5D, 7F)
 There are    36 symmetry adapted cartesian basis functions of A   symmetry.
 There are    35 symmetry adapted basis functions of A   symmetry.
    35 basis functions,   108 primitive gaussians,    36 cartesian basis functions
    31 alpha electrons       31 beta electrons
       nuclear repulsion energy       167.9408963872 Hartrees.
 NAtoms=    6 NActive=    6 NUniq=    6 SFac= 1.00D+00 NAtFMM=   60 NAOKFM=F Big=F
 Integral buffers will be    131072 words long.
 Raffenetti 1 integral format.
 Two-electron integral symmetry is turned on.
 One-electron integrals computed using PRISM.
 NBasis=    35 RedAO= T EigKep=  2.38D-01  NBF=    35
 NBsUse=    35 1.00D-06 EigRej= -1.00D+00 NBFU=    35
 Initial guess from the checkpoint file:  "C:\Users\chemistry\Documents\Gruppe H\inputOptimierung3.chk"
 B after Tr=     0.000000    0.000000    0.000000
         Rot=    0.999993    0.003706    0.000001    0.000000 Ang=   0.42 deg.
 ExpMin= 1.69D-01 ExpMax= 2.63D+03 ExpMxC= 2.63D+03 IAcc=3 IRadAn=         5 AccDes= 0.00D+00
 Harris functional with IExCor=  205 and IRadAn=       5 diagonalized for initial guess.
 HarFok:  IExCor=  205 AccDes= 0.00D+00 IRadAn=         5 IDoV= 1 UseB2=F ITyADJ=14
 ICtDFT=  3500011 ScaDFX=  1.000000  1.000000  1.000000  1.000000
 FoFCou: FMM=F IPFlag=           0 FMFlag=      100000 FMFlg1=           0
         NFxFlg=           0 DoJE=T BraDBF=F KetDBF=T FulRan=T
         wScrn=  0.000000 ICntrl=       500 IOpCl=  0 I1Cent=   200000004 NGrid=           0
         NMat0=    1 NMatS0=      1 NMatT0=    0 NMatD0=    1 NMtDS0=    0 NMtDT0=    0
 Petite list used in FoFCou.
 Keep R1 ints in memory in canonical form, NReq=1030918.
 Requested convergence on RMS density matrix=1.00D-08 within 128 cycles.
 Requested convergence on MAX density matrix=1.00D-06.
 Requested convergence on             energy=1.00D-06.
 No special actions if energy rises.
 SCF Done:  E(RHF) =  -3038.27117228     A.U. after    8 cycles
            NFock=  8  Conv=0.51D-08     -V/T= 2.0018
 Calling FoFJK, ICntrl=      2127 FMM=F ISym2X=0 I1Cent= 0 IOpClX= 0 NMat=1 NMatS=1 NMatT=0.
 ***** Axes restored to original set *****
 -------------------------------------------------------------------
 Center     Atomic                   Forces (Hartrees/Bohr)
 Number     Number              X              Y              Z
 -------------------------------------------------------------------
      1        6          -0.001807372   -0.000463380   -0.000049017
      2        1          -0.000097151   -0.001313760    0.002703869
      3        1          -0.000117317   -0.001284951   -0.002654092
      4        1          -0.000044954    0.003024396   -0.000000119
      5       35           0.000624805   -0.000002058   -0.000000031
      6       17           0.001441988    0.000039754   -0.000000611
 -------------------------------------------------------------------
 Cartesian Forces:  Max     0.003024396 RMS     0.001351119

 GradGradGradGradGradGradGradGradGradGradGradGradGradGradGradGradGradGrad
 Berny optimization.
 Using GEDIIS/GDIIS optimizer.
 FormGI is forming the generalized inverse of G from B-inverse, IUseBI=4.
 Internal  Forces:  Max     0.002577647 RMS     0.000986714
 Search for a local minimum.
 Step number   3 out of a maximum of   36
 All quantities printed in internal units (Hartrees-Bohrs-Radians)
 Mixed Optimization -- En-DIIS/RFO-DIIS
 Update second derivatives using D2CorX and points    1    2    3
 DE= -1.98D-03 DEPred=-1.77D-03 R= 1.12D+00
 TightC=F SS=  1.41D+00  RLast= 2.65D-01 DXNew= 8.4853D-01 7.9617D-01
 Trust test= 1.12D+00 RLast= 2.65D-01 DXMaxT set to 7.96D-01
 ITU=  1  1  0
 Use linear search instead of GDIIS.
     Eigenvalues ---    0.01215   0.01229   0.01640   0.04511   0.05289
     Eigenvalues ---    0.05753   0.10348   0.10702   0.20944   0.34851
     Eigenvalues ---    0.35345   0.39563
 RFO step:  Lambda=-7.00427039D-05 EMin= 1.21526914D-02
 Quartic linear search produced a step of  0.08007.
 Iteration  1 RMS(Cart)=  0.00421275 RMS(Int)=  0.00019271
 Iteration  2 RMS(Cart)=  0.00000866 RMS(Int)=  0.00019232
 Iteration  3 RMS(Cart)=  0.00000000 RMS(Int)=  0.00019232
 Variable       Old X    -DE/DX   Delta X   Delta X   Delta X     New X
                                 (Linear)    (Quad)   (Total)
    R1        2.05973  -0.00258   0.00023  -0.00677  -0.00651   2.05322
    R2        2.05960  -0.00250   0.00022  -0.00661  -0.00636   2.05324
    R3        2.05989  -0.00257   0.00024  -0.00693  -0.00665   2.05325
    R4        5.90654   0.00032   0.00435  -0.01163  -0.00724   5.89931
    R5        3.46930   0.00144  -0.00257   0.00436   0.00179   3.47109
    R6        5.61234  -0.00042  -0.00616  -0.01087  -0.01707   5.59527
    R7        5.61234  -0.00042  -0.00616  -0.01075  -0.01694   5.59540
    R8        5.61375  -0.00044  -0.00621  -0.01102  -0.01725   5.59650
    A1        1.93305  -0.00029  -0.00433  -0.00146  -0.00631   1.92674
    A2        1.93026  -0.00029  -0.00444   0.00092  -0.00390   1.92636
    A3        1.88980   0.00028   0.00502  -0.00046   0.00461   1.89441
    A4        1.93027  -0.00030  -0.00444   0.00092  -0.00390   1.92637
    A5        1.88979   0.00028   0.00502  -0.00045   0.00462   1.89441
    A6        1.88918   0.00035   0.00497   0.00051   0.00548   1.89466
    A7        0.61358  -0.00080  -0.00016  -0.00116  -0.00144   0.61214
    A8        0.61294  -0.00081  -0.00018  -0.00067  -0.00094   0.61199
    A9        0.61292  -0.00080  -0.00018  -0.00065  -0.00093   0.61199
   A10        3.14158  -0.00002   0.00003  -0.00033  -0.00029   3.14129
   A11        3.14155  -0.00004   0.00004  -0.00051  -0.00044   3.14111
    D1       -2.14797   0.00077   0.01334   0.00058   0.01333  -2.13464
    D2        2.09685  -0.00002   0.00011  -0.00228  -0.00225   2.09460
    D3       -2.09316  -0.00001   0.00006  -0.00113  -0.00112  -2.09429
    D4        2.09317   0.00001  -0.00006   0.00114   0.00113   2.09430
    D5       -0.55077   0.00007   0.00006  -0.00095  -0.00093  -0.55170
    D6        0.55273  -0.00008   0.00001  -0.00062  -0.00064   0.55209
    D7       -0.55275   0.00009  -0.00001   0.00062   0.00064  -0.55210
         Item               Value     Threshold  Converged?
 Maximum Force            0.002578     0.000450     NO 
 RMS     Force            0.000987     0.000300     NO 
 Maximum Displacement     0.009490     0.001800     NO 
 RMS     Displacement     0.004214     0.001200     NO 
 Predicted change in Energy=-4.810737D-05
 GradGradGradGradGradGradGradGradGradGradGradGradGradGradGradGradGradGrad

                          Input orientation:                          
 ---------------------------------------------------------------------
 Center     Atomic      Atomic             Coordinates (Angstroms)
 Number     Number       Type             X           Y           Z
 ---------------------------------------------------------------------
      1          6           0        1.312666   -0.000619    0.000010
      2          1           0        0.966932    0.514206   -0.892145
      3          1           0        0.966966    0.514214    0.892186
      4          1           0        0.967313   -1.030805    0.000013
      5         35           0       -1.809112   -0.000176   -0.000033
      6         17           0        3.149490    0.000131   -0.000030
 ---------------------------------------------------------------------
                    Distance matrix (angstroms):
                    1          2          3          4          5
     1  C    0.000000
     2  H    1.086516   0.000000
     3  H    1.086527   1.784331   0.000000
     4  H    1.086532   1.784098   1.784112   0.000000
     5  Br   3.121778   2.960890   2.960956   2.961542   0.000000
     6  Cl   1.836824   2.413235   2.413243   2.413446   4.958602
                    6
     6  Cl   0.000000
 Stoichiometry    CH3BrCl(1-)
 Framework group  C1[X(CH3BrCl)]
 Deg. of freedom    12
 Full point group                 C1      NOp   1
 Largest Abelian subgroup         C1      NOp   1
 Largest concise Abelian subgroup C1      NOp   1
                         Standard orientation:                         
 ---------------------------------------------------------------------
 Center     Atomic      Atomic             Coordinates (Angstroms)
 Number     Number       Type             X           Y           Z
 ---------------------------------------------------------------------
      1          6           0        1.296279    0.000019    0.000503
      2          1           0        0.950561   -0.877884   -0.538277
      3          1           0        0.950599    0.905795   -0.490024
      4          1           0        0.950888   -0.027840    1.030299
      5         35           0       -1.825499   -0.000002   -0.000055
      6         17           0        3.133103   -0.000007   -0.000181
 ---------------------------------------------------------------------
 Rotational constants (GHZ):         157.5265862           0.8037797           0.8037791
 Standard basis: STO-3G (5D, 7F)
 There are    36 symmetry adapted cartesian basis functions of A   symmetry.
 There are    35 symmetry adapted basis functions of A   symmetry.
    35 basis functions,   108 primitive gaussians,    36 cartesian basis functions
    31 alpha electrons       31 beta electrons
       nuclear repulsion energy       168.0845618435 Hartrees.
 NAtoms=    6 NActive=    6 NUniq=    6 SFac= 1.00D+00 NAtFMM=   60 NAOKFM=F Big=F
 Integral buffers will be    131072 words long.
 Raffenetti 1 integral format.
 Two-electron integral symmetry is turned on.
 One-electron integrals computed using PRISM.
 NBasis=    35 RedAO= T EigKep=  2.36D-01  NBF=    35
 NBsUse=    35 1.00D-06 EigRej= -1.00D+00 NBFU=    35
 Initial guess from the checkpoint file:  "C:\Users\chemistry\Documents\Gruppe H\inputOptimierung3.chk"
 B after Tr=     0.000000    0.000000    0.000000
         Rot=    0.999800   -0.020003    0.000001    0.000000 Ang=  -2.29 deg.
 Keep R1 ints in memory in canonical form, NReq=1030918.
 Requested convergence on RMS density matrix=1.00D-08 within 128 cycles.
 Requested convergence on MAX density matrix=1.00D-06.
 Requested convergence on             energy=1.00D-06.
 No special actions if energy rises.
 SCF Done:  E(RHF) =  -3038.27121949     A.U. after    7 cycles
            NFock=  7  Conv=0.58D-08     -V/T= 2.0018
 Calling FoFJK, ICntrl=      2127 FMM=F ISym2X=0 I1Cent= 0 IOpClX= 0 NMat=1 NMatS=1 NMatT=0.
 ***** Axes restored to original set *****
 -------------------------------------------------------------------
 Center     Atomic                   Forces (Hartrees/Bohr)
 Number     Number              X              Y              Z
 -------------------------------------------------------------------
      1        6          -0.000029161   -0.000018746    0.000007353
      2        1          -0.000236051    0.000184326   -0.000259051
      3        1          -0.000232471    0.000178837    0.000250691
      4        1          -0.000192988   -0.000323241    0.000000575
      5       35           0.000576623   -0.000002171    0.000000068
      6       17           0.000114048   -0.000019005    0.000000364
 -------------------------------------------------------------------
 Cartesian Forces:  Max     0.000576623 RMS     0.000210096

 GradGradGradGradGradGradGradGradGradGradGradGradGradGradGradGradGradGrad
 Berny optimization.
 Using GEDIIS/GDIIS optimizer.
 FormGI is forming the generalized inverse of G from B-inverse, IUseBI=4.
 Internal  Forces:  Max     0.000346345 RMS     0.000136263
 Search for a local minimum.
 Step number   4 out of a maximum of   36
 All quantities printed in internal units (Hartrees-Bohrs-Radians)
 Mixed Optimization -- En-DIIS/RFO-DIIS
 Swapping is turned off.
 Update second derivatives using D2CorX and points    1    2    3    4
 DE= -4.72D-05 DEPred=-4.81D-05 R= 9.81D-01
 TightC=F SS=  1.41D+00  RLast= 3.73D-02 DXNew= 1.3390D+00 1.1194D-01
 Trust test= 9.81D-01 RLast= 3.73D-02 DXMaxT set to 7.96D-01
 ITU=  1  1  1  0
     Eigenvalues ---    0.01213   0.01228   0.01379   0.04631   0.05239
     Eigenvalues ---    0.05938   0.10372   0.10709   0.21136   0.34838
     Eigenvalues ---    0.35328   0.44975
 En-DIIS/RFO-DIIS/Sim-DIIS IScMMF=       -3 using points:     4    3
 RFO step:  Lambda=-6.33939020D-06.
 DidBck=F Rises=F RFO-DIIS coefs:    1.41885   -0.41885
 Iteration  1 RMS(Cart)=  0.00180175 RMS(Int)=  0.00000567
 Iteration  2 RMS(Cart)=  0.00000033 RMS(Int)=  0.00000565
 Variable       Old X    -DE/DX   Delta X   Delta X   Delta X     New X
                                 (Linear)    (Quad)   (Total)
    R1        2.05322   0.00035  -0.00273   0.00313   0.00040   2.05362
    R2        2.05324   0.00033  -0.00267   0.00305   0.00038   2.05362
    R3        2.05325   0.00033  -0.00278   0.00315   0.00037   2.05362
    R4        5.89931  -0.00018  -0.00303  -0.00647  -0.00951   5.88980
    R5        3.47109   0.00011   0.00075   0.00043   0.00118   3.47227
    R6        5.59527  -0.00013  -0.00715  -0.00240  -0.00954   5.58573
    R7        5.59540  -0.00013  -0.00710  -0.00246  -0.00955   5.58584
    R8        5.59650  -0.00012  -0.00722  -0.00269  -0.00991   5.58660
    A1        1.92674  -0.00001  -0.00264   0.00193  -0.00073   1.92602
    A2        1.92636   0.00003  -0.00163   0.00147  -0.00017   1.92619
    A3        1.89441   0.00000   0.00193  -0.00143   0.00050   1.89491
    A4        1.92637   0.00003  -0.00163   0.00147  -0.00018   1.92619
    A5        1.89441   0.00000   0.00194  -0.00145   0.00049   1.89490
    A6        1.89466  -0.00005   0.00230  -0.00216   0.00013   1.89480
    A7        0.61214   0.00012  -0.00060   0.00165   0.00104   0.61318
    A8        0.61199   0.00012  -0.00040   0.00158   0.00118   0.61318
    A9        0.61199   0.00012  -0.00039   0.00157   0.00118   0.61317
   A10        3.14129   0.00001  -0.00012   0.00030   0.00018   3.14147
   A11        3.14111   0.00003  -0.00018   0.00050   0.00032   3.14143
    D1       -2.13464  -0.00002   0.00558  -0.00442   0.00116  -2.13348
    D2        2.09460  -0.00001  -0.00094   0.00064  -0.00030   2.09430
    D3       -2.09429  -0.00001  -0.00047   0.00031  -0.00016  -2.09445
    D4        2.09430   0.00001   0.00047  -0.00033   0.00014   2.09444
    D5       -0.55170  -0.00002  -0.00039   0.00002  -0.00037  -0.55207
    D6        0.55209   0.00000  -0.00027   0.00024  -0.00003   0.55207
    D7       -0.55210   0.00000   0.00027  -0.00025   0.00002  -0.55208
         Item               Value     Threshold  Converged?
 Maximum Force            0.000346     0.000450     YES
 RMS     Force            0.000136     0.000300     YES
 Maximum Displacement     0.008152     0.001800     NO 
 RMS     Displacement     0.001802     0.001200     NO 
 Predicted change in Energy=-3.169711D-06
 GradGradGradGradGradGradGradGradGradGradGradGradGradGradGradGradGradGrad

                          Input orientation:                          
 ---------------------------------------------------------------------
 Center     Atomic      Atomic             Coordinates (Angstroms)
 Number     Number       Type             X           Y           Z
 ---------------------------------------------------------------------
      1          6           0        1.311948   -0.000554    0.000008
      2          1           0        0.965763    0.514507   -0.892096
      3          1           0        0.965800    0.514508    0.892126
      4          1           0        0.966146   -1.030795    0.000014
      5         35           0       -1.804798   -0.000467   -0.000029
      6         17           0        3.149396   -0.000248   -0.000023
 ---------------------------------------------------------------------
                    Distance matrix (angstroms):
                    1          2          3          4          5
     1  C    0.000000
     2  H    1.086729   0.000000
     3  H    1.086730   1.784222   0.000000
     4  H    1.086727   1.784326   1.784327   0.000000
     5  Br   3.116746   2.955840   2.955901   2.956299   0.000000
     6  Cl   1.837448   2.414336   2.414331   2.414250   4.954194
                    6
     6  Cl   0.000000
 Stoichiometry    CH3BrCl(1-)
 Framework group  C1[X(CH3BrCl)]
 Deg. of freedom    12
 Full point group                 C1      NOp   1
 Largest Abelian subgroup         C1      NOp   1
 Largest concise Abelian subgroup C1      NOp   1
                         Standard orientation:                         
 ---------------------------------------------------------------------
 Center     Atomic      Atomic             Coordinates (Angstroms)
 Number     Number       Type             X           Y           Z
 ---------------------------------------------------------------------
      1          6           0        1.293240   -0.000178    0.000026
      2          1           0        0.947071    0.511067   -0.894276
      3          1           0        0.947112    0.518715    0.889930
      4          1           0        0.947402   -1.030397    0.004450
      5         35           0       -1.823506    0.000017   -0.000003
      6         17           0        3.130688    0.000063   -0.000010
 ---------------------------------------------------------------------
 Rotational constants (GHZ):         157.5071630           0.8053303           0.8053300
 Standard basis: STO-3G (5D, 7F)
 There are    36 symmetry adapted cartesian basis functions of A   symmetry.
 There are    35 symmetry adapted basis functions of A   symmetry.
    35 basis functions,   108 primitive gaussians,    36 cartesian basis functions
    31 alpha electrons       31 beta electrons
       nuclear repulsion energy       168.2147063261 Hartrees.
 NAtoms=    6 NActive=    6 NUniq=    6 SFac= 1.00D+00 NAtFMM=   60 NAOKFM=F Big=F
 Integral buffers will be    131072 words long.
 Raffenetti 1 integral format.
 Two-electron integral symmetry is turned on.
 One-electron integrals computed using PRISM.
 NBasis=    35 RedAO= T EigKep=  2.36D-01  NBF=    35
 NBsUse=    35 1.00D-06 EigRej= -1.00D+00 NBFU=    35
 Initial guess from the checkpoint file:  "C:\Users\chemistry\Documents\Gruppe H\inputOptimierung3.chk"
 B after Tr=     0.000000    0.000000    0.000000
         Rot=    0.718099   -0.695941    0.000000    0.000000 Ang= -88.20 deg.
 Keep R1 ints in memory in canonical form, NReq=1030918.
 Requested convergence on RMS density matrix=1.00D-08 within 128 cycles.
 Requested convergence on MAX density matrix=1.00D-06.
 Requested convergence on             energy=1.00D-06.
 No special actions if energy rises.
 SCF Done:  E(RHF) =  -3038.27122503     A.U. after    7 cycles
            NFock=  7  Conv=0.38D-08     -V/T= 2.0018
 Calling FoFJK, ICntrl=      2127 FMM=F ISym2X=0 I1Cent= 0 IOpClX= 0 NMat=1 NMatS=1 NMatT=0.
 ***** Axes restored to original set *****
 -------------------------------------------------------------------
 Center     Atomic                   Forces (Hartrees/Bohr)
 Number     Number              X              Y              Z
 -------------------------------------------------------------------
      1        6          -0.000162701    0.000011888    0.000000732
      2        1          -0.000058020    0.000073793   -0.000151155
      3        1          -0.000058115    0.000073586    0.000150585
      4        1          -0.000070323   -0.000163272   -0.000000106
      5       35           0.000493805    0.000000034    0.000000048
      6       17          -0.000144646    0.000003971   -0.000000104
 -------------------------------------------------------------------
 Cartesian Forces:  Max     0.000493805 RMS     0.000146463

 GradGradGradGradGradGradGradGradGradGradGradGradGradGradGradGradGradGrad
 Berny optimization.
 Using GEDIIS/GDIIS optimizer.
 FormGI is forming the generalized inverse of G from B-inverse, IUseBI=4.
 Internal  Forces:  Max     0.000206741 RMS     0.000088920
 Search for a local minimum.
 Step number   5 out of a maximum of   36
 All quantities printed in internal units (Hartrees-Bohrs-Radians)
 Mixed Optimization -- En-DIIS/RFO-DIIS
 Swapping is turned off.
 Update second derivatives using D2CorX and points    1    2    3    4    5
 DE= -5.54D-06 DEPred=-3.17D-06 R= 1.75D+00
 TightC=F SS=  1.41D+00  RLast= 1.95D-02 DXNew= 1.3390D+00 5.8438D-02
 Trust test= 1.75D+00 RLast= 1.95D-02 DXMaxT set to 7.96D-01
 ITU=  1  1  1  1  0
     Eigenvalues ---    0.00270   0.01214   0.01229   0.04769   0.05236
     Eigenvalues ---    0.05923   0.10447   0.10724   0.27785   0.34837
     Eigenvalues ---    0.35326   0.43332
 En-DIIS/RFO-DIIS/Sim-DIIS IScMMF=       -3 using points:     5    4    3
 RFO step:  Lambda=-2.32998710D-05.
 DidBck=F Rises=F RFO-DIIS coefs:    2.92327   -2.00000    0.07673
 Iteration  1 RMS(Cart)=  0.00857216 RMS(Int)=  0.00001810
 Iteration  2 RMS(Cart)=  0.00000554 RMS(Int)=  0.00001610
 Iteration  3 RMS(Cart)=  0.00000000 RMS(Int)=  0.00001610
 Variable       Old X    -DE/DX   Delta X   Delta X   Delta X     New X
                                 (Linear)    (Quad)   (Total)
    R1        2.05362   0.00016   0.00128  -0.00102   0.00024   2.05386
    R2        2.05362   0.00016   0.00123  -0.00098   0.00023   2.05386
    R3        2.05362   0.00016   0.00122  -0.00104   0.00017   2.05378
    R4        5.88980  -0.00021  -0.01773  -0.03048  -0.04822   5.84158
    R5        3.47227  -0.00014   0.00213  -0.00008   0.00205   3.47433
    R6        5.58573  -0.00009  -0.01704  -0.02786  -0.04490   5.54083
    R7        5.58584  -0.00009  -0.01707  -0.02791  -0.04497   5.54087
    R8        5.58660  -0.00009  -0.01773  -0.02779  -0.04552   5.54108
    A1        1.92602   0.00004  -0.00091   0.00036  -0.00056   1.92546
    A2        1.92619   0.00005  -0.00003   0.00034   0.00031   1.92649
    A3        1.89491  -0.00005   0.00060  -0.00060   0.00001   1.89491
    A4        1.92619   0.00005  -0.00005   0.00035   0.00030   1.92649
    A5        1.89490  -0.00005   0.00059  -0.00058   0.00001   1.89490
    A6        1.89480  -0.00004  -0.00016   0.00010  -0.00006   1.89474
    A7        0.61318   0.00007   0.00211   0.00293   0.00509   0.61827
    A8        0.61318   0.00007   0.00234   0.00291   0.00530   0.61847
    A9        0.61317   0.00007   0.00233   0.00292   0.00530   0.61847
   A10        3.14147   0.00000   0.00038  -0.00024   0.00013   3.14161
   A11        3.14143   0.00000   0.00065  -0.00045   0.00020   3.14163
    D1       -2.13348  -0.00011   0.00120  -0.00092   0.00029  -2.13319
    D2        2.09430  -0.00001  -0.00041  -0.00026  -0.00066   2.09363
    D3       -2.09445  -0.00001  -0.00022  -0.00012  -0.00033  -2.09478
    D4        2.09444   0.00001   0.00019   0.00014   0.00033   2.09477
    D5       -0.55207  -0.00001  -0.00064  -0.00028  -0.00092  -0.55299
    D6        0.55207   0.00000   0.00000   0.00029   0.00030   0.55237
    D7       -0.55208   0.00000  -0.00001  -0.00028  -0.00030  -0.55238
         Item               Value     Threshold  Converged?
 Maximum Force            0.000207     0.000450     YES
 RMS     Force            0.000089     0.000300     YES
 Maximum Displacement     0.039857     0.001800     NO 
 RMS     Displacement     0.008574     0.001200     NO 
 Predicted change in Energy=-1.172991D-05
 GradGradGradGradGradGradGradGradGradGradGradGradGradGradGradGradGradGrad

                          Input orientation:                          
 ---------------------------------------------------------------------
 Center     Atomic      Atomic             Coordinates (Angstroms)
 Number     Number       Type             X           Y           Z
 ---------------------------------------------------------------------
      1          6           0        1.307524   -0.000591    0.000002
      2          1           0        0.961379    0.514878   -0.892039
      3          1           0        0.961395    0.514874    0.892046
      4          1           0        0.961605   -1.030885    0.000007
      5         35           0       -1.783707   -0.000770   -0.000009
      6         17           0        3.146058   -0.000557   -0.000006
 ---------------------------------------------------------------------
                    Distance matrix (angstroms):
                    1          2          3          4          5
     1  C    0.000000
     2  H    1.086858   0.000000
     3  H    1.086853   1.784084   0.000000
     4  H    1.086814   1.784693   1.784686   0.000000
     5  Br   3.091230   2.932082   2.932104   2.932213   0.000000
     6  Cl   1.838535   2.415413   2.415404   2.415246   4.929765
                    6
     6  Cl   0.000000
 Stoichiometry    CH3BrCl(1-)
 Framework group  C1[X(CH3BrCl)]
 Deg. of freedom    12
 Full point group                 C1      NOp   1
 Largest Abelian subgroup         C1      NOp   1
 Largest concise Abelian subgroup C1      NOp   1
                         Standard orientation:                         
 ---------------------------------------------------------------------
 Center     Atomic      Atomic             Coordinates (Angstroms)
 Number     Number       Type             X           Y           Z
 ---------------------------------------------------------------------
      1          6           0        1.278298    0.000023    0.000007
      2          1           0        0.932176    0.520016   -0.889413
      3          1           0        0.932194    0.510983    0.894648
      4          1           0        0.932332   -1.030242   -0.005202
      5         35           0       -1.812933   -0.000012   -0.000001
      6         17           0        3.116832   -0.000028   -0.000003
 ---------------------------------------------------------------------
 Rotational constants (GHZ):         157.4725704           0.8138594           0.8138575
 Standard basis: STO-3G (5D, 7F)
 There are    36 symmetry adapted cartesian basis functions of A   symmetry.
 There are    35 symmetry adapted basis functions of A   symmetry.
    35 basis functions,   108 primitive gaussians,    36 cartesian basis functions
    31 alpha electrons       31 beta electrons
       nuclear repulsion energy       168.9537986017 Hartrees.
 NAtoms=    6 NActive=    6 NUniq=    6 SFac= 1.00D+00 NAtFMM=   60 NAOKFM=F Big=F
 Integral buffers will be    131072 words long.
 Raffenetti 1 integral format.
 Two-electron integral symmetry is turned on.
 One-electron integrals computed using PRISM.
 NBasis=    35 RedAO= T EigKep=  2.36D-01  NBF=    35
 NBsUse=    35 1.00D-06 EigRej= -1.00D+00 NBFU=    35
 Initial guess from the checkpoint file:  "C:\Users\chemistry\Documents\Gruppe H\inputOptimierung3.chk"
 B after Tr=     0.000000    0.000000    0.000000
         Rot=    0.999989   -0.004674    0.000000    0.000001 Ang=  -0.54 deg.
 ExpMin= 1.69D-01 ExpMax= 2.63D+03 ExpMxC= 2.63D+03 IAcc=3 IRadAn=         5 AccDes= 0.00D+00
 Harris functional with IExCor=  205 and IRadAn=       5 diagonalized for initial guess.
 HarFok:  IExCor=  205 AccDes= 0.00D+00 IRadAn=         5 IDoV= 1 UseB2=F ITyADJ=14
 ICtDFT=  3500011 ScaDFX=  1.000000  1.000000  1.000000  1.000000
 FoFCou: FMM=F IPFlag=           0 FMFlag=      100000 FMFlg1=           0
         NFxFlg=           0 DoJE=T BraDBF=F KetDBF=T FulRan=T
         wScrn=  0.000000 ICntrl=       500 IOpCl=  0 I1Cent=   200000004 NGrid=           0
         NMat0=    1 NMatS0=      1 NMatT0=    0 NMatD0=    1 NMtDS0=    0 NMtDT0=    0
 Petite list used in FoFCou.
 Keep R1 ints in memory in canonical form, NReq=1031005.
 Requested convergence on RMS density matrix=1.00D-08 within 128 cycles.
 Requested convergence on MAX density matrix=1.00D-06.
 Requested convergence on             energy=1.00D-06.
 No special actions if energy rises.
 SCF Done:  E(RHF) =  -3038.27123715     A.U. after    7 cycles
            NFock=  7  Conv=0.32D-08     -V/T= 2.0018
 Calling FoFJK, ICntrl=      2127 FMM=F ISym2X=0 I1Cent= 0 IOpClX= 0 NMat=1 NMatS=1 NMatT=0.
 ***** Axes restored to original set *****
 -------------------------------------------------------------------
 Center     Atomic                   Forces (Hartrees/Bohr)
 Number     Number              X              Y              Z
 -------------------------------------------------------------------
      1        6          -0.000399447    0.000127633   -0.000002800
      2        1           0.000141709   -0.000058428   -0.000053591
      3        1           0.000139899   -0.000055778    0.000057165
      4        1           0.000084287   -0.000023894   -0.000000506
      5       35           0.000003801    0.000001767    0.000000013
      6       17           0.000029750    0.000008699   -0.000000280
 -------------------------------------------------------------------
 Cartesian Forces:  Max     0.000399447 RMS     0.000114704

 GradGradGradGradGradGradGradGradGradGradGradGradGradGradGradGradGradGrad
 Berny optimization.
 Using GEDIIS/GDIIS optimizer.
 FormGI is forming the generalized inverse of G from B-inverse, IUseBI=4.
 Internal  Forces:  Max     0.000132637 RMS     0.000040675
 Search for a local minimum.
 Step number   6 out of a maximum of   36
 All quantities printed in internal units (Hartrees-Bohrs-Radians)
 Mixed Optimization -- En-DIIS/RFO-DIIS
 Swapping is turned off.
 Update second derivatives using D2CorX and points    1    2    3    4    5
                                                      6
 DE= -1.21D-05 DEPred=-1.17D-05 R= 1.03D+00
 TightC=F SS=  1.41D+00  RLast= 9.23D-02 DXNew= 1.3390D+00 2.7697D-01
 Trust test= 1.03D+00 RLast= 9.23D-02 DXMaxT set to 7.96D-01
 ITU=  1  1  1  1  1  0
     Eigenvalues ---    0.00270   0.01216   0.01230   0.04344   0.05237
     Eigenvalues ---    0.05425   0.10490   0.10738   0.24559   0.34835
     Eigenvalues ---    0.35320   0.44633
 En-DIIS/RFO-DIIS/Sim-DIIS IScMMF=       -3 using points:     6    5    4    3
 RFO step:  Lambda=-9.18187153D-07.
 DidBck=F Rises=F RFO-DIIS coefs:    1.18557   -0.83056    0.50859    0.13640
 Iteration  1 RMS(Cart)=  0.00049907 RMS(Int)=  0.00000242
 Iteration  2 RMS(Cart)=  0.00000038 RMS(Int)=  0.00000239
 Variable       Old X    -DE/DX   Delta X   Delta X   Delta X     New X
                                 (Linear)    (Quad)   (Total)
    R1        2.05386  -0.00003   0.00067  -0.00073  -0.00005   2.05381
    R2        2.05386  -0.00002   0.00066  -0.00071  -0.00004   2.05381
    R3        2.05378  -0.00001   0.00070  -0.00066   0.00004   2.05382
    R4        5.84158  -0.00007  -0.00183  -0.00018  -0.00201   5.83957
    R5        3.47433   0.00003  -0.00062   0.00174   0.00112   3.47544
    R6        5.54083   0.00003   0.00015   0.00003   0.00018   5.54101
    R7        5.54087   0.00003   0.00013   0.00003   0.00016   5.54103
    R8        5.54108   0.00002   0.00030   0.00011   0.00040   5.54148
    A1        1.92546   0.00007   0.00123   0.00051   0.00174   1.92720
    A2        1.92649   0.00003   0.00070  -0.00008   0.00063   1.92712
    A3        1.89491  -0.00006  -0.00095  -0.00014  -0.00109   1.89382
    A4        1.92649   0.00003   0.00070  -0.00008   0.00063   1.92712
    A5        1.89490  -0.00006  -0.00094  -0.00014  -0.00108   1.89382
    A6        1.89474  -0.00003  -0.00085  -0.00009  -0.00094   1.89380
    A7        0.61827   0.00000   0.00047  -0.00011   0.00035   0.61862
    A8        0.61847   0.00000   0.00035  -0.00024   0.00010   0.61858
    A9        0.61847   0.00000   0.00035  -0.00024   0.00011   0.61858
   A10        3.14161  -0.00001  -0.00005  -0.00003  -0.00009   3.14152
   A11        3.14163  -0.00002  -0.00011  -0.00005  -0.00016   3.14147
    D1       -2.13319  -0.00013  -0.00251  -0.00054  -0.00305  -2.13624
    D2        2.09363   0.00002   0.00038   0.00045   0.00083   2.09447
    D3       -2.09478   0.00001   0.00019   0.00023   0.00042  -2.09436
    D4        2.09477  -0.00001  -0.00019  -0.00022  -0.00041   2.09436
    D5       -0.55299   0.00002   0.00019   0.00027   0.00046  -0.55253
    D6        0.55237   0.00001   0.00016   0.00012   0.00028   0.55264
    D7       -0.55238  -0.00001  -0.00016  -0.00011  -0.00027  -0.55265
         Item               Value     Threshold  Converged?
 Maximum Force            0.000133     0.000450     YES
 RMS     Force            0.000041     0.000300     YES
 Maximum Displacement     0.001532     0.001800     YES
 RMS     Displacement     0.000499     0.001200     YES
 Predicted change in Energy=-4.513331D-07
 Optimization completed.
    -- Stationary point found.
                           ----------------------------
                           !   Optimized Parameters   !
                           ! (Angstroms and Degrees)  !
 --------------------------                            --------------------------
 ! Name  Definition              Value          Derivative Info.                !
 --------------------------------------------------------------------------------
 ! R1    R(1,2)                  1.0869         -DE/DX =    0.0                 !
 ! R2    R(1,3)                  1.0869         -DE/DX =    0.0                 !
 ! R3    R(1,4)                  1.0868         -DE/DX =    0.0                 !
 ! R4    R(1,5)                  3.0912         -DE/DX =   -0.0001              !
 ! R5    R(1,6)                  1.8385         -DE/DX =    0.0                 !
 ! R6    R(2,5)                  2.9321         -DE/DX =    0.0                 !
 ! R7    R(3,5)                  2.9321         -DE/DX =    0.0                 !
 ! R8    R(4,5)                  2.9322         -DE/DX =    0.0                 !
 ! A1    A(2,1,3)              110.3208         -DE/DX =    0.0001              !
 ! A2    A(2,1,4)              110.38           -DE/DX =    0.0                 !
 ! A3    A(2,1,6)              108.5704         -DE/DX =   -0.0001              !
 ! A4    A(3,1,4)              110.3797         -DE/DX =    0.0                 !
 ! A5    A(3,1,6)              108.57           -DE/DX =   -0.0001              !
 ! A6    A(4,1,6)              108.5604         -DE/DX =    0.0                 !
 ! A7    A(2,5,3)               35.4242         -DE/DX =    0.0                 !
 ! A8    A(2,5,4)               35.436          -DE/DX =    0.0                 !
 ! A9    A(3,5,4)               35.4357         -DE/DX =    0.0                 !
 ! A10   L(5,1,6,2,-1)         180.0007         -DE/DX =    0.0                 !
 ! A11   L(5,1,6,2,-2)         180.0023         -DE/DX =    0.0                 !
 ! D1    D(2,1,4,3)           -122.2228         -DE/DX =   -0.0001              !
 ! D2    D(2,1,6,3)            119.9564         -DE/DX =    0.0                 !
 ! D3    D(2,1,6,4)           -120.0221         -DE/DX =    0.0                 !
 ! D4    D(3,1,6,4)            120.0215         -DE/DX =    0.0                 !
 ! D5    D(3,2,5,1)            -31.6841         -DE/DX =    0.0                 !
 ! D6    D(4,2,5,1)             31.6483         -DE/DX =    0.0                 !
 ! D7    D(4,3,5,1)            -31.6489         -DE/DX =    0.0                 !
 --------------------------------------------------------------------------------
 GradGradGradGradGradGradGradGradGradGradGradGradGradGradGradGradGradGrad

                          Input orientation:                          
 ---------------------------------------------------------------------
 Center     Atomic      Atomic             Coordinates (Angstroms)
 Number     Number       Type             X           Y           Z
 ---------------------------------------------------------------------
      1          6           0        1.307524   -0.000591    0.000002
      2          1           0        0.961379    0.514878   -0.892039
      3          1           0        0.961395    0.514874    0.892046
      4          1           0        0.961605   -1.030885    0.000007
      5         35           0       -1.783707   -0.000770   -0.000009
      6         17           0        3.146058   -0.000557   -0.000006
 ---------------------------------------------------------------------
                    Distance matrix (angstroms):
                    1          2          3          4          5
     1  C    0.000000
     2  H    1.086858   0.000000
     3  H    1.086853   1.784084   0.000000
     4  H    1.086814   1.784693   1.784686   0.000000
     5  Br   3.091230   2.932082   2.932104   2.932213   0.000000
     6  Cl   1.838535   2.415413   2.415404   2.415246   4.929765
                    6
     6  Cl   0.000000
 Stoichiometry    CH3BrCl(1-)
 Framework group  C1[X(CH3BrCl)]
 Deg. of freedom    12
 Full point group                 C1      NOp   1
 Largest Abelian subgroup         C1      NOp   1
 Largest concise Abelian subgroup C1      NOp   1
                         Standard orientation:                         
 ---------------------------------------------------------------------
 Center     Atomic      Atomic             Coordinates (Angstroms)
 Number     Number       Type             X           Y           Z
 ---------------------------------------------------------------------
      1          6           0        1.278298    0.000023    0.000007
      2          1           0        0.932176    0.520016   -0.889413
      3          1           0        0.932194    0.510983    0.894648
      4          1           0        0.932332   -1.030242   -0.005202
      5         35           0       -1.812933   -0.000012   -0.000001
      6         17           0        3.116832   -0.000028   -0.000003
 ---------------------------------------------------------------------
 Rotational constants (GHZ):         157.4725704           0.8138594           0.8138575

 **********************************************************************

            Population analysis using the SCF Density.

 **********************************************************************

 Orbital symmetries:
       Occupied  (A) (A) (A) (A) (A) (A) (A) (A) (A) (A) (A) (A)
                 (A) (A) (A) (A) (A) (A) (A) (A) (A) (A) (A) (A)
                 (A) (A) (A) (A) (A) (A) (A)
       Virtual   (A) (A) (A) (A)
 The electronic state is 1-A.
 Alpha  occ. eigenvalues -- -483.87198-103.51969 -62.61207 -57.15995 -57.15987
 Alpha  occ. eigenvalues --  -57.15987 -10.97079 -10.20901  -8.58831  -7.65285
 Alpha  occ. eigenvalues --   -7.64791  -7.64791  -6.33350  -6.33298  -6.33298
 Alpha  occ. eigenvalues --   -1.68511  -1.68496  -1.68496  -1.68453  -1.68453
 Alpha  occ. eigenvalues --   -0.90689  -0.71662  -0.43283  -0.43269  -0.43139
 Alpha  occ. eigenvalues --   -0.33028  -0.24415  -0.24413   0.07707   0.07707
 Alpha  occ. eigenvalues --    0.07810
 Alpha virt. eigenvalues --    0.49581   0.82455   0.82486   0.85259
          Condensed to atoms (all electrons):
               1          2          3          4          5          6
     1  C    4.746715   0.385205   0.385205   0.385240  -0.002650   0.203859
     2  H    0.385205   0.556591  -0.019262  -0.019225   0.000120  -0.020344
     3  H    0.385205  -0.019262   0.556593  -0.019225   0.000120  -0.020344
     4  H    0.385240  -0.019225  -0.019225   0.556517   0.000118  -0.020359
     5  Br  -0.002650   0.000120   0.000120   0.000118  35.976627   0.000060
     6  Cl   0.203859  -0.020344  -0.020344  -0.020359   0.000060  17.129920
 Mulliken charges:
               1
     1  C   -0.103573
     2  H    0.116914
     3  H    0.116913
     4  H    0.116934
     5  Br  -0.974395
     6  Cl  -0.272793
 Sum of Mulliken charges =  -1.00000
 Mulliken charges with hydrogens summed into heavy atoms:
               1
     1  C    0.247188
     5  Br  -0.974395
     6  Cl  -0.272793
 Electronic spatial extent (au):  <R**2>=           1158.8983
 Charge=             -1.0000 electrons
 Dipole moment (field-independent basis, Debye):
    X=              5.0587    Y=              0.0005    Z=              0.0000  Tot=              5.0587
 Quadrupole moment (field-independent basis, Debye-Ang):
   XX=            -66.1480   YY=            -35.9577   ZZ=            -35.9595
   XY=              0.0002   XZ=              0.0000   YZ=              0.0000
 Traceless Quadrupole moment (field-independent basis, Debye-Ang):
   XX=            -20.1263   YY=             10.0641   ZZ=             10.0622
   XY=              0.0002   XZ=              0.0000   YZ=              0.0000
 Octapole moment (field-independent basis, Debye-Ang**2):
  XXX=            -58.8282  YYY=             -0.7016  ZZZ=              0.0106  XYY=            -13.1254
  XXY=              0.0003  XXZ=              0.0001  XZZ=            -13.1273  YZZ=              0.7017
  YYZ=             -0.0107  XYZ=              0.0000
 Hexadecapole moment (field-independent basis, Debye-Ang**3):
 XXXX=          -1318.5207 YYYY=            -36.4591 ZZZZ=            -36.4562 XXXY=              0.0003
 XXXZ=              0.0001 YYYX=             -0.5729 YYYZ=              0.0000 ZZZX=              0.0087
 ZZZY=              0.0000 XXYY=           -195.1995 XXZZ=           -195.2005 YYZZ=            -12.1519
 XXYZ=              0.0000 YYXZ=             -0.0087 ZZXY=              0.5734
 N-N= 1.689537986017D+02 E-N=-7.636870088307D+03  KE= 3.032681051758D+03
 Unable to Open any file for archive entry.
 1|1|UNPC-LAPTOP-PP56KN09|FOpt|RHF|STO-3G|C1H3Br1Cl1(1-)|CHEMISTRY|01-D
 ec-2022|0||# opt freq hf/sto-3g geom=connectivity||Title Card Required
 ||-1,1|C,1.3075237176,-0.0005905482,0.0000020904|H,0.9613787204,0.5148
 784609,-0.8920385384|H,0.961395292,0.5148740622,0.8920455606|H,0.96160
 54882,-1.0308848279,0.000006787|Br,-1.7837066309,-0.000769634,-0.00000
 92489|Cl,3.1460584128,-0.0005565129,-0.0000056506||Version=EM64W-G16Re
 vC.01|State=1-A|HF=-3038.2712371|RMSD=3.202e-009|RMSF=1.147e-004|Dipol
 e=1.9902326,0.0002802,0.0000087|Quadrupole=-14.9634005,7.4823853,7.481
 0151,-0.0009265,-0.0000045,-0.0000085|PG=C01 [X(C1H3Br1Cl1)]||@
 The archive entry for this job was punched.


 The number of Unix installations has grown to 10,
  with more expected.
                  -- The Unix Programmer's Manual,
                     2nd Edition, June, 1972.
 Job cpu time:       0 days  0 hours  0 minutes 10.0 seconds.
 Elapsed time:       0 days  0 hours  0 minutes  5.8 seconds.
 File lengths (MBytes):  RWF=      6 Int=      0 D2E=      0 Chk=      1 Scr=      1
 Normal termination of Gaussian 16 at Thu Dec 01 11:06:08 2022.
 Link1:  Proceeding to internal job step number  2.
 ---------------------------------------------------------------
 #N Geom=AllCheck Guess=TCheck SCRF=Check GenChk RHF/STO-3G Freq
 ---------------------------------------------------------------
 1/10=4,29=7,30=1,38=1,40=1/1,3;
 2/12=2,40=1/2;
 3/6=3,11=1,14=-4,25=1,30=1,70=2,71=2,116=1,140=1/1,2,3;
 4/5=101/1;
 5/5=2,38=6,98=1/2;
 8/6=4,10=90,11=11/1;
 10/13=10,15=4/2;
 11/6=3,8=1,9=11,15=111,16=1/1,2,10;
 10/6=1/2;
 6/7=2,8=2,9=2,10=2,28=1/1;
 7/8=1,10=1,25=1/1,2,3,16;
 1/10=4,30=1/3;
 99//99;
 Structure from the checkpoint file:  "C:\Users\chemistry\Documents\Gruppe H\inputOptimierung3.chk"
 -------------------
 Title Card Required
 -------------------
 Charge = -1 Multiplicity = 1
 Redundant internal coordinates found in file.  (old form).
 C,0,1.3075237176,-0.0005905482,0.0000020904
 H,0,0.9613787204,0.5148784609,-0.8920385384
 H,0,0.961395292,0.5148740622,0.8920455606
 H,0,0.9616054882,-1.0308848279,0.000006787
 Br,0,-1.7837066309,-0.000769634,-0.0000092489
 Cl,0,3.1460584128,-0.0005565129,-0.0000056506
 Recover connectivity data from disk.

 GradGradGradGradGradGradGradGradGradGradGradGradGradGradGradGradGradGrad
 Berny optimization.
 Initialization pass.
                           ----------------------------
                           !    Initial Parameters    !
                           ! (Angstroms and Degrees)  !
 --------------------------                            --------------------------
 ! Name  Definition              Value          Derivative Info.                !
 --------------------------------------------------------------------------------
 ! R1    R(1,2)                  1.0869         calculate D2E/DX2 analytically  !
 ! R2    R(1,3)                  1.0869         calculate D2E/DX2 analytically  !
 ! R3    R(1,4)                  1.0868         calculate D2E/DX2 analytically  !
 ! R4    R(1,5)                  3.0912         calculate D2E/DX2 analytically  !
 ! R5    R(1,6)                  1.8385         calculate D2E/DX2 analytically  !
 ! R6    R(2,5)                  2.9321         calculate D2E/DX2 analytically  !
 ! R7    R(3,5)                  2.9321         calculate D2E/DX2 analytically  !
 ! R8    R(4,5)                  2.9322         calculate D2E/DX2 analytically  !
 ! A1    A(2,1,3)              110.3208         calculate D2E/DX2 analytically  !
 ! A2    A(2,1,4)              110.38           calculate D2E/DX2 analytically  !
 ! A3    A(2,1,6)              108.5704         calculate D2E/DX2 analytically  !
 ! A4    A(3,1,4)              110.3797         calculate D2E/DX2 analytically  !
 ! A5    A(3,1,6)              108.57           calculate D2E/DX2 analytically  !
 ! A6    A(4,1,6)              108.5604         calculate D2E/DX2 analytically  !
 ! A7    A(2,5,3)               35.4242         calculate D2E/DX2 analytically  !
 ! A8    A(2,5,4)               35.436          calculate D2E/DX2 analytically  !
 ! A9    A(3,5,4)               35.4357         calculate D2E/DX2 analytically  !
 ! A10   L(5,1,6,2,-1)         180.0007         calculate D2E/DX2 analytically  !
 ! A11   L(5,1,6,2,-2)         180.0023         calculate D2E/DX2 analytically  !
 ! D1    D(2,1,4,3)           -122.2228         calculate D2E/DX2 analytically  !
 ! D2    D(2,1,6,3)            119.9564         calculate D2E/DX2 analytically  !
 ! D3    D(2,1,6,4)           -120.0221         calculate D2E/DX2 analytically  !
 ! D4    D(3,1,6,4)            120.0215         calculate D2E/DX2 analytically  !
 ! D5    D(3,2,5,1)            -31.6841         calculate D2E/DX2 analytically  !
 ! D6    D(4,2,5,1)             31.6483         calculate D2E/DX2 analytically  !
 ! D7    D(4,3,5,1)            -31.6489         calculate D2E/DX2 analytically  !
 --------------------------------------------------------------------------------
 Trust Radius=3.00D-01 FncErr=1.00D-07 GrdErr=1.00D-07 EigMax=2.50D+02 EigMin=1.00D-04
 Number of steps in this run=      2 maximum allowed number of steps=      2.
 GradGradGradGradGradGradGradGradGradGradGradGradGradGradGradGradGradGrad

                          Input orientation:                          
 ---------------------------------------------------------------------
 Center     Atomic      Atomic             Coordinates (Angstroms)
 Number     Number       Type             X           Y           Z
 ---------------------------------------------------------------------
      1          6           0        1.307524   -0.000591    0.000002
      2          1           0        0.961379    0.514878   -0.892039
[...]
 Sum of electronic and thermal Energies=             -3038.221550
 Sum of electronic and thermal Enthalpies=           -3038.220605
 Sum of electronic and thermal Free Energies=        -3038.257781
 
                     E (Thermal)             CV                S
                      KCal/Mol        Cal/Mol-Kelvin    Cal/Mol-Kelvin
 Total                   31.179             13.119             78.242
 Electronic               0.000              0.000              0.000
 Translational            0.889              2.981             40.475
 Rotational               0.889              2.981             25.536
 Vibrational             29.402              7.158             12.231
 Vibration     1          0.598              1.969              4.206
 Vibration     2          0.598              1.969              4.197
 Vibration     3          0.603              1.951              3.509
                       Q            Log10(Q)             Ln(Q)
 Total Bot       0.646473D-06         -6.189450        -14.251735
 Total V=0       0.170310D+15         14.231241         32.768644
 Vib (Bot)       0.132235D-18        -18.878654        -43.469706
 Vib (Bot)    1  0.302619D+01          0.480896          1.107303
 Vib (Bot)    2  0.301366D+01          0.479095          1.103156
 Vib (Bot)    3  0.211122D+01          0.324532          0.747264
 Vib (V=0)       0.348367D+02          1.542037          3.550673
 Vib (V=0)    1  0.356721D+01          0.552329          1.271785
 Vib (V=0)    2  0.355486D+01          0.550822          1.268315
 Vib (V=0)    3  0.266961D+01          0.426449          0.981934
 Electronic      0.100000D+01          0.000000          0.000000
 Translational   0.575290D+08          7.759887         17.867800
 Rotational      0.849800D+05          4.929317         11.350171
 ***** Axes restored to original set *****
 -------------------------------------------------------------------
 Center     Atomic                   Forces (Hartrees/Bohr)
 Number     Number              X              Y              Z
 -------------------------------------------------------------------
      1        6          -0.000399446    0.000127636   -0.000002800
      2        1           0.000141709   -0.000058428   -0.000053591
      3        1           0.000139899   -0.000055778    0.000057165
      4        1           0.000084288   -0.000023894   -0.000000506
      5       35           0.000003801    0.000001767    0.000000013
      6       17           0.000029750    0.000008696   -0.000000280
 -------------------------------------------------------------------
 Cartesian Forces:  Max     0.000399446 RMS     0.000114704
 FormGI is forming the generalized inverse of G from B-inverse, IUseBI=4.

 GradGradGradGradGradGradGradGradGradGradGradGradGradGradGradGradGradGrad
 Berny optimization.
 Internal  Forces:  Max     0.000132636 RMS     0.000040675
 Search for a local minimum.
 Step number   1 out of a maximum of    2
 All quantities printed in internal units (Hartrees-Bohrs-Radians)
 Second derivative matrix not updated -- analytic derivatives used.
 ITU=  0
     Eigenvalues ---    0.00138   0.00139   0.00287   0.04662   0.05749
     Eigenvalues ---    0.06362   0.12823   0.13318   0.30710   0.43784
     Eigenvalues ---    0.45425   0.45885
 Angle between quadratic step and forces=  24.31 degrees.
 Linear search not attempted -- first point.
 Iteration  1 RMS(Cart)=  0.00045357 RMS(Int)=  0.00000049
 Iteration  2 RMS(Cart)=  0.00000029 RMS(Int)=  0.00000037
 Variable       Old X    -DE/DX   Delta X   Delta X   Delta X     New X
                                 (Linear)    (Quad)   (Total)
    R1        2.05386  -0.00003   0.00000  -0.00011  -0.00010   2.05376
    R2        2.05386  -0.00002   0.00000  -0.00010  -0.00010   2.05376
    R3        2.05378  -0.00001   0.00000  -0.00002  -0.00002   2.05376
    R4        5.84158  -0.00007   0.00000  -0.00225  -0.00225   5.83933
    R5        3.47433   0.00003   0.00000   0.00070   0.00070   3.47503
    R6        5.54083   0.00003   0.00000  -0.00017  -0.00017   5.54066
    R7        5.54087   0.00003   0.00000  -0.00022  -0.00022   5.54065
    R8        5.54108   0.00002   0.00000  -0.00043  -0.00043   5.54065
    A1        1.92546   0.00007   0.00000   0.00155   0.00155   1.92701
    A2        1.92649   0.00003   0.00000   0.00052   0.00052   1.92701
    A3        1.89491  -0.00006   0.00000  -0.00096  -0.00096   1.89396
    A4        1.92649   0.00003   0.00000   0.00052   0.00052   1.92701
    A5        1.89490  -0.00006   0.00000  -0.00095  -0.00095   1.89396
    A6        1.89474  -0.00003   0.00000  -0.00078  -0.00078   1.89396
    A7        0.61827   0.00000   0.00000   0.00034   0.00034   0.61860
    A8        0.61847   0.00000   0.00000   0.00013   0.00013   0.61860
    A9        0.61847   0.00000   0.00000   0.00014   0.00014   0.61860
   A10        3.14161  -0.00001   0.00000  -0.00001  -0.00001   3.14160
   A11        3.14163  -0.00002   0.00000  -0.00004  -0.00004   3.14159
    D1       -2.13319  -0.00013   0.00000  -0.00266  -0.00266  -2.13585
    D2        2.09363   0.00002   0.00000   0.00076   0.00076   2.09439
    D3       -2.09478   0.00001   0.00000   0.00039   0.00039  -2.09440
    D4        2.09477  -0.00001   0.00000  -0.00038  -0.00038   2.09440
    D5       -0.55299   0.00002   0.00000   0.00038   0.00038  -0.55261
    D6        0.55237   0.00001   0.00000   0.00024   0.00024   0.55261
    D7       -0.55238  -0.00001   0.00000  -0.00023  -0.00023  -0.55261
         Item               Value     Threshold  Converged?
 Maximum Force            0.000133     0.000450     YES
 RMS     Force            0.000041     0.000300     YES
 Maximum Displacement     0.001376     0.001800     YES
 RMS     Displacement     0.000453     0.001200     YES
 Predicted change in Energy=-4.180945D-07
 Optimization completed.
    -- Stationary point found.
                           ----------------------------
                           !   Optimized Parameters   !
                           ! (Angstroms and Degrees)  !
 --------------------------                            --------------------------
 ! Name  Definition              Value          Derivative Info.                !
 --------------------------------------------------------------------------------
 ! R1    R(1,2)                  1.0869         -DE/DX =    0.0                 !
 ! R2    R(1,3)                  1.0869         -DE/DX =    0.0                 !
 ! R3    R(1,4)                  1.0868         -DE/DX =    0.0                 !
 ! R4    R(1,5)                  3.0912         -DE/DX =   -0.0001              !
 ! R5    R(1,6)                  1.8385         -DE/DX =    0.0                 !
 ! R6    R(2,5)                  2.9321         -DE/DX =    0.0                 !
 ! R7    R(3,5)                  2.9321         -DE/DX =    0.0                 !
 ! R8    R(4,5)                  2.9322         -DE/DX =    0.0                 !
 ! A1    A(2,1,3)              110.3208         -DE/DX =    0.0001              !
 ! A2    A(2,1,4)              110.38           -DE/DX =    0.0                 !
 ! A3    A(2,1,6)              108.5704         -DE/DX =   -0.0001              !
 ! A4    A(3,1,4)              110.3797         -DE/DX =    0.0                 !
 ! A5    A(3,1,6)              108.57           -DE/DX =   -0.0001              !
 ! A6    A(4,1,6)              108.5604         -DE/DX =    0.0                 !
 ! A7    A(2,5,3)               35.4242         -DE/DX =    0.0                 !
 ! A8    A(2,5,4)               35.436          -DE/DX =    0.0                 !
 ! A9    A(3,5,4)               35.4357         -DE/DX =    0.0                 !
 ! A10   L(5,1,6,2,-1)         180.0007         -DE/DX =    0.0                 !
 ! A11   L(5,1,6,2,-2)         180.0023         -DE/DX =    0.0                 !
 ! D1    D(2,1,4,3)           -122.2228         -DE/DX =   -0.0001              !
 ! D2    D(2,1,6,3)            119.9564         -DE/DX =    0.0                 !
 ! D3    D(2,1,6,4)           -120.0221         -DE/DX =    0.0                 !
 ! D4    D(3,1,6,4)            120.0215         -DE/DX =    0.0                 !
 ! D5    D(3,2,5,1)            -31.6841         -DE/DX =    0.0                 !
 ! D6    D(4,2,5,1)             31.6483         -DE/DX =    0.0                 !
 ! D7    D(4,3,5,1)            -31.6489         -DE/DX =    0.0                 !
 --------------------------------------------------------------------------------
 GradGradGradGradGradGradGradGradGradGradGradGradGradGradGradGradGradGrad


 ----------------------------------------------------------------------

 Electric dipole moment (input orientation):
 (Debye = 10**-18 statcoulomb cm , SI units = C m)
                  (au)            (Debye)         (10**-30 SI)
   Tot        0.199023D+01      0.505867D+01      0.168739D+02
   x          0.199023D+01      0.505867D+01      0.168739D+02
   y          0.280248D-03      0.712320D-03      0.237605D-02
   z          0.000000D+00      0.000000D+00      0.000000D+00

 Dipole polarizability, Alpha (input orientation).
 (esu units = cm**3 , SI units = C**2 m**2 J**-1)
 Alpha(0;0):
               (au)            (10**-24 esu)      (10**-40 SI)
   iso        0.117691D+02      0.174401D+01      0.194047D+01
   aniso      0.184387D+02      0.273233D+01      0.304013D+01
   xx         0.240616D+02      0.356556D+01      0.396722D+01
   yx        -0.143044D-02     -0.211970D-03     -0.235848D-03
   yy         0.562517D+01      0.833564D+00      0.927465D+00
   zx        -0.145076D-04     -0.214980D-05     -0.239198D-05
   zy        -0.248315D-04     -0.367965D-05     -0.409416D-05
   zz         0.562065D+01      0.832894D+00      0.926719D+00

 First dipole hyperpolarizability, Beta (input orientation).
 ||, _|_  parallel and perpendicular components, (z) with respect to z axis,
 vector components x,y,z.  Values do not include the 1/n! factor of 1/2.
 (esu units = statvolt**-1 cm**4 , SI units = C**3 m**3 J**-2)
 Beta(0;0,0):
               (au)            (10**-30 esu)      (10**-50 SI)
   || (z)     0.370217D-03      0.319839D-05      0.118705D-05
   _|_(z)     0.123406D-03      0.106613D-05      0.395683D-06
   x          0.140763D+04      0.121608D+02      0.451336D+01
   y          0.182998D+00      0.158096D-02      0.586758D-03
   z          0.185109D-02      0.159919D-04      0.593525D-05
   ||         0.281525D+03      0.243216D+01      0.902672D+00
   xxx        0.476617D+03      0.411760D+01      0.152820D+01
   xxy        0.591305D-01      0.510841D-03      0.189594D-03
   yxy       -0.370517D+01     -0.320098D-01     -0.118801D-01
   yyy       -0.378905D+01     -0.327344D-01     -0.121490D-01
   xxz        0.551650D-03      0.476583D-05      0.176879D-05
   yxz        0.555272D-04      0.479712D-06      0.178040D-06
   yyz        0.143884D-04      0.124304D-06      0.461343D-07
   zxz       -0.370230D+01     -0.319850D-01     -0.118709D-01
   zyz        0.379091D+01      0.327505D-01      0.121550D-01
   zzz        0.509902D-04      0.440516D-06      0.163493D-06

 ----------------------------------------------------------------------

 Dipole orientation:
     6          0.00000708         -0.00146390          2.47086155
     1          1.68557950          0.97296081          1.81687209
     1         -1.68585080          0.97247775          1.81691817
     1          0.00026948         -1.94834583          1.81689668
    35          0.00000285         -0.00097976         -3.37071719
    17          0.00003698         -0.00188880          5.94518856

 Electric dipole moment (dipole orientation):
 (Debye = 10**-18 statcoulomb cm , SI units = C m)
                  (au)            (Debye)         (10**-30 SI)
   Tot        0.199023D+01      0.505867D+01      0.168739D+02
   x          0.000000D+00      0.000000D+00      0.000000D+00
   y          0.000000D+00      0.000000D+00      0.000000D+00
   z          0.199023D+01      0.505867D+01      0.168739D+02

 Dipole polarizability, Alpha (dipole orientation).
 (esu units = cm**3 , SI units = C**2 m**2 J**-1)
 Alpha(0;0):
               (au)            (10**-24 esu)      (10**-40 SI)
   iso        0.117691D+02      0.174401D+01      0.194047D+01
   aniso      0.184387D+02      0.273233D+01      0.304013D+01
   xx         0.562065D+01      0.832894D+00      0.926719D+00
   yx         0.241752D-04      0.358240D-05      0.398596D-05
   yy         0.562517D+01      0.833564D+00      0.927465D+00
   zx         0.958489D-04      0.142033D-04      0.158034D-04
   zy        -0.402650D-02     -0.596666D-03     -0.663880D-03
   zz         0.240616D+02      0.356556D+01      0.396722D+01

 First dipole hyperpolarizability, Beta (dipole orientation).
 ||, _|_  parallel and perpendicular components, (z) with respect to z axis,
 vector components x,y,z.  Values do not include the 1/n! factor of 1/2.
 (esu units = statvolt**-1 cm**4 , SI units = C**3 m**3 J**-2)
 Beta(0;0,0):
               (au)            (10**-30 esu)      (10**-50 SI)
   || (z)     0.281525D+03      0.243216D+01      0.902672D+00
   _|_(z)     0.938418D+02      0.810720D+00      0.300891D+00
   x          0.431642D-02      0.372905D-04      0.138400D-04
   y         -0.152121D-01     -0.131421D-03     -0.487754D-04
   z          0.140763D+04      0.121608D+02      0.451336D+01
   ||         0.281525D+03      0.243216D+01      0.902672D+00
   xxx       -0.170127D-02     -0.146976D-04     -0.545488D-05
   xxy        0.379144D+01      0.327550D-01      0.121567D-01
   yxy        0.157048D-02      0.135677D-04      0.503552D-05
   yyy       -0.378748D+01     -0.327209D-01     -0.121440D-01
   xxz       -0.370177D+01     -0.319804D-01     -0.118692D-01
   yxz       -0.715416D-04     -0.618064D-06     -0.229388D-06
   yyz       -0.370571D+01     -0.320145D-01     -0.118819D-01
   zxz        0.156960D-02      0.135601D-04      0.503270D-05
   zyz       -0.902613D-02     -0.779787D-04     -0.289410D-04
   zzz        0.476617D+03      0.411760D+01      0.152821D+01

 ----------------------------------------------------------------------
 Unable to Open any file for archive entry.
 1|1|UNPC-LAPTOP-PP56KN09|Freq|RHF|STO-3G|C1H3Br1Cl1(1-)|CHEMISTRY|01-D
 ec-2022|0||#N Geom=AllCheck Guess=TCheck SCRF=Check GenChk RHF/STO-3G 
 Freq||Title Card Required||-1,1|C,1.3075237176,-0.0005905482,0.0000020
 904|H,0.9613787204,0.5148784609,-0.8920385384|H,0.961395292,0.51487406
 22,0.8920455606|H,0.9616054882,-1.0308848279,0.000006787|Br,-1.7837066
 309,-0.000769634,-0.0000092489|Cl,3.1460584128,-0.0005565129,-0.000005
 6506||Version=EM64W-G16RevC.01|State=1-A|HF=-3038.2712371|RMSD=7.262e-
 010|RMSF=1.147e-004|ZeroPoint=0.0443959|Thermal=0.0496875|ETot=-3038.2
 215496|HTot=-3038.2206054|GTot=-3038.2577809|Dipole=1.9902326,0.000280
 2,0.0000087|DipoleDeriv=1.4060434,0.0000938,-0.0000022,0.0001971,0.098
 6397,-0.0000004,-0.000003,-0.0000004,0.0988468,0.0247736,-0.0333196,0.
 0576186,-0.0287203,0.0773713,0.0202868,0.0495908,0.0203237,0.0539704,0
 .0247624,-0.0333187,-0.0576173,-0.02872,0.0773698,-0.0202863,-0.049589
 1,-0.0203239,0.0539683,0.0245974,0.0665888,0.,0.0573366,0.0424473,0.,0
 .0000007,0.0000006,0.0890607,-1.3595825,-0.0000213,-0.0000004,-0.00005
 87,-0.9491726,-0.0000004,-0.0000003,-0.0000004,-0.9491965,-1.1205944,-
 0.0000229,0.0000014,-0.0000348,-0.3466556,0.0000002,0.000001,0.0000002
 ,-0.3466497|Polar=24.0616044,-0.0014304,5.625166,-0.0000145,-0.0000248
 ,5.6206462|PolarDeriv=-39.7558561,-0.0039929,0.997017,-0.000012,-0.000
 0131,0.9966915,0.0003415,0.574357,1.2948066,-0.0000138,-0.0000106,-1.2
 978001,0.0000429,-0.0000138,-0.000003,0.574402,-1.2999794,-0.0000269,-
 1.9091555,0.8520627,-0.2452728,-1.4745154,0.0189381,-0.2668142,0.14965
 14,-1.2352493,1.804475,0.2009625,-1.8060654,0.491274,-0.261075,0.20085
 07,-0.1808284,-1.4669495,1.4307421,-3.7915055,-1.9088846,0.8520632,-0.
 2452683,1.4745302,-0.0189302,-0.2668094,0.1496295,-1.2352134,1.8044519
 ,-0.2009523,1.8060717,0.4912709,0.2610247,-0.2008367,0.1808239,-1.4669
 11,1.4307294,3.7915369,-1.9055298,-1.7031531,-0.2776665,0.0000061,0.00
 00038,-0.2344696,-0.2997716,-1.5823167,-4.7665601,0.0000065,0.00002,0.
 1784496,-0.0000064,0.0000028,0.0000073,-1.1188153,-1.6981231,0.0000265
 ,8.8634937,0.0010724,-0.0166348,0.0000066,0.0000006,-0.0166148,0.00081
 6,-0.9314119,0.0234814,-0.0000046,-0.0000001,-0.0236939,0.0000387,-0.0
 000046,-0.0000003,-0.9314328,-0.0237964,-0.0000006,36.6159322,0.001947
 7,-0.2121746,-0.0000156,0.0000008,-0.2119834,-0.0006668,4.4098343,-0.1
 606547,0.0000016,-0.0000156,0.1604995,-0.0000249,0.0000016,0.0000005,4
 .4097067,0.1604274,-0.0000304|HyperPolar=476.6165704,0.0591305,-3.7051
 737,-3.7890455,0.0005517,0.0000555,0.0000144,-3.7023005,3.7909143,0.00
 0051|Quadrupole=-14.9634004,7.4823853,7.4810151,-0.0009265,-0.0000045,
 -0.0000085|PG=C01 [X(C1H3Br1Cl1)]|NImag=0||0.46759468,-0.00007597,0.83
 090759,-0.00000105,0.00000419,0.83027380,-0.08925487,0.06218183,-0.107
 64445,0.10022722,0.06319117,-0.16979037,0.15852730,-0.06230387,0.16120
 806,-0.10935799,0.15849409,-0.35252745,0.10782839,-0.16675458,0.353536
 90,-0.08925149,0.06218089,0.10764376,0.00719427,-0.00821944,-0.0106554
 5,0.10022448,0.06319034,-0.16979113,-0.15853283,-0.00821920,0.01406045
 ,0.02078322,-0.06230284,0.16120910,0.10935758,-0.15850019,-0.35253897,
 0.01065504,-0.02078294,-0.01564748,-0.10782775,0.16676048,0.35354830,-
 0.08919431,-0.12428576,0.00000040,0.00718497,0.01333148,0.00180139,0.0
 0718487,0.01333114,-0.00180140,0.10020104,-0.12629942,-0.44427853,0.00
 000130,-0.00510731,-0.00817545,-0.00793292,-0.00510735,-0.00817580,0.0
 0793305,0.12452152,0.44999346,0.00000045,0.00000185,-0.07817291,0.0124
 5116,0.03360237,0.00664810,-0.01245128,-0.03360301,0.00664833,-0.00000
 051,-0.00000135,0.06482754,0.01242466,-0.00000015,0.00000008,-0.002414
 42,0.00078606,-0.00136151,-0.00241434,0.00078596,0.00136146,-0.0024183
 8,-0.00157168,0.00000006,0.01150889,-0.00000155,-0.00154978,0.00000004
 ,0.00060143,-0.00055129,-0.00068992,0.00060133,-0.00055126,0.00068990,
 -0.00119973,0.00064040,-0.00000003,-0.00000034,0.00040672,0.00000027,0
 .00000004,-0.00155002,-0.00103896,-0.00068913,0.00024312,0.00103880,0.
 00068909,0.00024315,0.,-0.00000001,-0.00094910,-0.00000004,0.00000003,
 0.00040757,-0.21231867,-0.00000083,0.00000126,-0.02293719,-0.00678541,
 0.01174517,-0.02293779,-0.00678540,-0.01174492,-0.02295820,0.01356424,
 0.00000012,-0.01668641,-0.00000113,-0.00000007,0.29783826,-0.00000458,
 -0.04549779,0.00000002,0.01284712,0.00324859,-0.00389989,0.01284741,0.
 00324863,0.00389970,-0.02569864,0.00999591,0.00000016,0.00000015,0.001
 60520,-0.00000002,0.00000853,0.02739945,0.00000075,0.00000002,-0.04548
 446,-0.02225118,-0.00390301,0.00774679,0.02225193,0.00390306,0.0077466
 6,0.00000011,-0.00000007,0.00099803,-0.00000005,-0.00000002,0.00160527
 ,-0.00000156,0.00000003,0.02738770||0.00039945,-0.00012764,0.00000280,
 -0.00014171,0.00005843,0.00005359,-0.00013990,0.00005578,-0.00005716,-
 0.00008429,0.00002389,0.00000051,-0.00000380,-0.00000177,-0.00000001,-
 0.00002975,-0.00000870,0.00000028|||@
 The archive entry for this job was punched.


 The number of Unix installations has grown to 10,
  with more expected.
                  -- The Unix Programmer's Manual,
                     2nd Edition, June, 1972.
 Job cpu time:       0 days  0 hours  0 minutes  3.0 seconds.
 Elapsed time:       0 days  0 hours  0 minutes  1.9 seconds.
 File lengths (MBytes):  RWF=      6 Int=      0 D2E=      0 Chk=      1 Scr=      1
 Normal termination of Gaussian 16 at Thu Dec 01 11:06:11 2022.
