 Entering Link 1 = C:\G16W\l1.exe PID=     17636.
  
 Copyright (c) 1988-2019, Gaussian, Inc.  All Rights Reserved.
  
 This is part of the Gaussian(R) 16 program.  It is based on
 the Gaussian(R) 09 system (copyright 2009, Gaussian, Inc.),
 the Gaussian(R) 03 system (copyright 2003, Gaussian, Inc.),
 the Gaussian(R) 98 system (copyright 1998, Gaussian, Inc.),
 the Gaussian(R) 94 system (copyright 1995, Gaussian, Inc.),
 the Gaussian 92(TM) system (copyright 1992, Gaussian, Inc.),
 the Gaussian 90(TM) system (copyright 1990, Gaussian, Inc.),
 the Gaussian 88(TM) system (copyright 1988, Gaussian, Inc.),
 the Gaussian 86(TM) system (copyright 1986, Carnegie Mellon
 University), and the Gaussian 82(TM) system (copyright 1983,
 Carnegie Mellon University). Gaussian is a federally registered
 trademark of Gaussian, Inc.
  
 This software contains proprietary and confidential information,
 including trade secrets, belonging to Gaussian, Inc.
  
 This software is provided under written license and may be
 used, copied, transmitted, or stored only in accord with that
 written license.
  
 The following legend is applicable only to US Government
 contracts under FAR:
  
                    RESTRICTED RIGHTS LEGEND
  
 Use, reproduction and disclosure by the US Government is
 subject to restrictions as set forth in subparagraphs (a)
 and (c) of the Commercial Computer Software - Restricted
 Rights clause in FAR 52.227-19.
  
 Gaussian, Inc.
 340 Quinnipiac St., Bldg. 40, Wallingford CT 06492
  
  
 ---------------------------------------------------------------
 Warning -- This program may not be used in any manner that
 competes with the business of Gaussian, Inc. or will provide
 assistance to any competitor of Gaussian, Inc.  The licensee
 of this program is prohibited from giving any competitor of
 Gaussian, Inc. access to this program.  By using this program,
 the user acknowledges that Gaussian, Inc. is engaged in the
 business of creating and licensing software in the field of
 computational chemistry and represents and warrants to the
 licensee that it is not a competitor of Gaussian, Inc. and that
 it will not use this program in any manner prohibited above.
 ---------------------------------------------------------------
  

 Cite this work as:
 Gaussian 16, Revision C.01,
 M. J. Frisch, G. W. Trucks, H. B. Schlegel, G. E. Scuseria, 
 M. A. Robb, J. R. Cheeseman, G. Scalmani, V. Barone, 
 G. A. Petersson, H. Nakatsuji, X. Li, M. Caricato, A. V. Marenich, 
 J. Bloino, B. G. Janesko, R. Gomperts, B. Mennucci, H. P. Hratchian, 
 J. V. Ortiz, A. F. Izmaylov, J. L. Sonnenberg, D. Williams-Young, 
 F. Ding, F. Lipparini, F. Egidi, J. Goings, B. Peng, A. Petrone, 
 T. Henderson, D. Ranasinghe, V. G. Zakrzewski, J. Gao, N. Rega, 
 G. Zheng, W. Liang, M. Hada, M. Ehara, K. Toyota, R. Fukuda, 
 J. Hasegawa, M. Ishida, T. Nakajima, Y. Honda, O. Kitao, H. Nakai, 
 T. Vreven, K. Throssell, J. A. Montgomery, Jr., J. E. Peralta, 
 F. Ogliaro, M. J. Bearpark, J. J. Heyd, E. N. Brothers, K. N. Kudin, 
 V. N. Staroverov, T. A. Keith, R. Kobayashi, J. Normand, 
 K. Raghavachari, A. P. Rendell, J. C. Burant, S. S. Iyengar, 
 J. Tomasi, M. Cossi, J. M. Millam, M. Klene, C. Adamo, R. Cammi, 
 J. W. Ochterski, R. L. Martin, K. Morokuma, O. Farkas, 
 J. B. Foresman, and D. J. Fox, Gaussian, Inc., Wallingford CT, 2019.
 
 ******************************************
 Gaussian 16:  EM64W-G16RevC.01 30-May-2019
                01-Dec-2022 
 ******************************************
 %chk=C:\Users\chemistry\Documents\Gruppe H\inputCC.chk
 -----------------------------------------------
 # opt=modredundant hf/cc-pvdz geom=connectivity
 -----------------------------------------------
 1/18=120,19=15,38=1,57=2/1,3;
 2/9=110,12=2,17=6,18=5,40=1/2;
 3/5=16,11=9,25=1,30=1,71=1/1,2,3;
 4//1;
 5/5=2,38=5/2;
 6/7=2,8=2,9=2,10=2,28=1/1;
 7//1,2,3,16;
 1/18=20,19=15/3(2);
 2/9=110/2;
 99//99;
 2/9=110/2;
 3/5=16,11=9,25=1,30=1,71=1/1,2,3;
 4/5=5,16=3,69=1/1;
 5/5=2,38=5/2;
 7//1,2,3,16;
 1/18=20,19=15/3(-5);
 2/9=110/2;
 6/7=2,8=2,9=2,10=2,19=2,28=1/1;
 99/9=1/99;
 -------------------
 Title Card Required
 -------------------
 Symbolic Z-matrix:
 Charge = -1 Multiplicity = 1
 C                     1.24093  -0.00079   0. 
 H                     0.98087   0.51663  -0.89625 
 H                     0.98087   0.51663   0.89625 
 H                     0.98166  -1.03587   0. 
 Br                   -1.871     0.00008   0. 
 Cl                    3.24093   0.00027   0. 
 
 Add virtual bond connecting atoms Cl6        and C1         Dist= 3.78D+00.
 Add virtual bond connecting atoms Br5        and C1         Dist= 5.88D+00.
 Add virtual bond connecting atoms Br5        and H2         Dist= 5.73D+00.
 Add virtual bond connecting atoms Br5        and H3         Dist= 5.73D+00.
 Add virtual bond connecting atoms Br5        and H4         Dist= 5.74D+00.
 The following ModRedundant input section has been read:
 B       1       5 S  15 -0.100                                                
 

 GradGradGradGradGradGradGradGradGradGradGradGradGradGradGradGradGradGrad
 Berny optimization.
 Initialization pass.
                           ----------------------------
                           !    Initial Parameters    !
                           ! (Angstroms and Degrees)  !
 --------------------------                            --------------------------
 ! Name  Definition              Value          Derivative Info.                !
 --------------------------------------------------------------------------------
 ! R1    R(1,2)                  1.0671         estimate D2E/DX2                !
 ! R2    R(1,3)                  1.0671         estimate D2E/DX2                !
 ! R3    R(1,4)                  1.0671         estimate D2E/DX2                !
 ! R4    R(1,5)                  3.1119         Scan                            !
 ! R5    R(1,6)                  2.0            estimate D2E/DX2                !
 ! R6    R(2,5)                  3.0337         estimate D2E/DX2                !
 ! R7    R(3,5)                  3.0337         estimate D2E/DX2                !
 ! R8    R(4,5)                  3.0349         estimate D2E/DX2                !
 ! A1    A(2,1,3)              114.2638         estimate D2E/DX2                !
 ! A2    A(2,1,4)              114.2772         estimate D2E/DX2                !
 ! A3    A(2,1,6)              104.0912         estimate D2E/DX2                !
 ! A4    A(3,1,4)              114.2772         estimate D2E/DX2                !
 ! A5    A(3,1,6)              104.0911         estimate D2E/DX2                !
 ! A6    A(4,1,6)              104.0927         estimate D2E/DX2                !
 ! A7    A(2,5,3)               34.367          estimate D2E/DX2                !
 ! A8    A(2,5,4)               34.3622         estimate D2E/DX2                !
 ! A9    A(3,5,4)               34.3622         estimate D2E/DX2                !
 ! A10   L(5,1,6,2,-1)         179.9769         estimate D2E/DX2                !
 ! A11   L(5,1,6,2,-2)         179.9587         estimate D2E/DX2                !
 ! D1    D(2,1,4,3)           -134.2646         estimate D2E/DX2                !
 ! D2    D(2,1,6,3)            119.9896         estimate D2E/DX2                !
 ! D3    D(2,1,6,4)           -120.0052         estimate D2E/DX2                !
 ! D4    D(3,1,6,4)            120.0052         estimate D2E/DX2                !
 ! D5    D(3,2,5,1)            -31.5528         estimate D2E/DX2                !
 ! D6    D(4,2,5,1)             31.5579         estimate D2E/DX2                !
 ! D7    D(4,3,5,1)            -31.5579         estimate D2E/DX2                !
 --------------------------------------------------------------------------------
 Trust Radius=3.00D-01 FncErr=1.00D-07 GrdErr=1.00D-07 EigMax=2.50D+02 EigMin=1.00D-04
 Number of optimizations in scan=  16
 Number of steps in this run=     36 maximum allowed number of steps=    100.
 GradGradGradGradGradGradGradGradGradGradGradGradGradGradGradGradGradGrad

                          Input orientation:                          
 ---------------------------------------------------------------------
 Center     Atomic      Atomic             Coordinates (Angstroms)
 Number     Number       Type             X           Y           Z
 ---------------------------------------------------------------------
      1          6           0        1.240930   -0.000790    0.000000
      2          1           0        0.980865    0.516630   -0.896247
      3          1           0        0.980865    0.516630    0.896248
      4          1           0        0.981657   -1.035865    0.000000
      5         35           0       -1.870995    0.000081    0.000000
      6         17           0        3.240933    0.000265    0.000000
 ---------------------------------------------------------------------
                    Distance matrix (angstroms):
                    1          2          3          4          5
     1  C    0.000000
     2  H    1.067059   0.000000
     3  H    1.067060   1.792495   0.000000
     4  H    1.067053   1.792624   1.792624   0.000000
     5  Br   3.111925   3.033675   3.033676   3.034931   0.000000
     6  Cl   2.000003   2.485518   2.485518   2.485537   5.111928
                    6
     6  Cl   0.000000
 This structure is nearly, but not quite of a higher symmetry.
 Consider Symm=Loose if the higher symmetry is desired.
 Stoichiometry    CH3BrCl(1-)
 Framework group  C1[X(CH3BrCl)]
 Deg. of freedom    12
 Full point group                 C1      NOp   1
 Largest Abelian subgroup         C1      NOp   1
 Largest concise Abelian subgroup C1      NOp   1
                         Standard orientation:                         
 ---------------------------------------------------------------------
 Center     Atomic      Atomic             Coordinates (Angstroms)
 Number     Number       Type             X           Y           Z
 ---------------------------------------------------------------------
      1          6           0       -0.000002   -0.001242    1.240930
      2          1           0       -0.897095   -0.516767    0.980017
      3          1           0        0.895398   -0.519703    0.980018
      4          1           0        0.001694    1.034254    0.983352
      5         35           0        0.000005    0.002983   -1.870993
      6         17           0       -0.000009   -0.005573    3.240928
 ---------------------------------------------------------------------
 Rotational constants (GHZ):         156.0532543           0.7605760           0.7605756
 Standard basis: CC-pVDZ (5D, 7F)
 There are    78 symmetry adapted cartesian basis functions of A   symmetry.
 There are    74 symmetry adapted basis functions of A   symmetry.
    74 basis functions,   272 primitive gaussians,    78 cartesian basis functions
    31 alpha electrons       31 beta electrons
       nuclear repulsion energy       163.2747689371 Hartrees.
 NAtoms=    6 NActive=    6 NUniq=    6 SFac= 1.00D+00 NAtFMM=   60 NAOKFM=F Big=F
 Integral buffers will be    131072 words long.
 Raffenetti 1 integral format.
 Two-electron integral symmetry is turned on.
 One-electron integrals computed using PRISM.
 NBasis=    74 RedAO= T EigKep=  2.02D-02  NBF=    74
 NBsUse=    74 1.00D-06 EigRej= -1.00D+00 NBFU=    74
 ExpMin= 1.22D-01 ExpMax= 6.40D+05 ExpMxC= 6.18D+03 IAcc=3 IRadAn=         5 AccDes= 0.00D+00
 Harris functional with IExCor=  205 and IRadAn=       5 diagonalized for initial guess.
 HarFok:  IExCor=  205 AccDes= 0.00D+00 IRadAn=         5 IDoV= 1 UseB2=F ITyADJ=14
 ICtDFT=  3500011 ScaDFX=  1.000000  1.000000  1.000000  1.000000
 FoFCou: FMM=F IPFlag=           0 FMFlag=      100000 FMFlg1=           0
         NFxFlg=           0 DoJE=T BraDBF=F KetDBF=T FulRan=T
         wScrn=  0.000000 ICntrl=       500 IOpCl=  0 I1Cent=   200000004 NGrid=           0
         NMat0=    1 NMatS0=      1 NMatT0=    0 NMatD0=    1 NMtDS0=    0 NMtDT0=    0
 Petite list used in FoFCou.
 Keep R1 ints in memory in canonical form, NReq=4922369.
 Requested convergence on RMS density matrix=1.00D-08 within 128 cycles.
 Requested convergence on MAX density matrix=1.00D-06.
 Requested convergence on             energy=1.00D-06.
 No special actions if energy rises.
 SCF Done:  E(RHF) =  -3071.56887851     A.U. after   11 cycles
            NFock= 11  Conv=0.73D-08     -V/T= 2.0004

 **********************************************************************

            Population analysis using the SCF Density.

 **********************************************************************

 Orbital symmetries:
       Occupied  (A) (A) (A) (A) (A) (A) (A) (A) (A) (A) (A) (A)
                 (A) (A) (A) (A) (A) (A) (A) (A) (A) (A) (A) (A)
                 (A) (A) (A) (A) (A) (A) (A)
       Virtual   (A) (A) (A) (A) (A) (A) (A) (A) (A) (A) (A) (A)
                 (A) (A) (A) (A) (A) (A) (A) (A) (A) (A) (A) (A)
                 (A) (A) (A) (A) (A) (A) (A) (A) (A) (A) (A) (A)
                 (A) (A) (A) (A) (A) (A) (A)
 The electronic state is 1-A.
 Alpha  occ. eigenvalues -- -489.76916-104.66614 -64.90370 -58.26021 -58.26015
 Alpha  occ. eigenvalues --  -58.26015 -11.16861 -10.39088  -9.54728  -7.85808
 Alpha  occ. eigenvalues --   -7.85559  -7.85559  -7.15525  -7.15472  -7.15472
 Alpha  occ. eigenvalues --   -2.89021  -2.88996  -2.88996  -2.88941  -2.88941
 Alpha  occ. eigenvalues --   -0.94016  -0.78762  -0.68684  -0.47638  -0.47634
 Alpha  occ. eigenvalues --   -0.35381  -0.29545  -0.29545  -0.14147  -0.14147
 Alpha  occ. eigenvalues --   -0.14146
 Alpha virt. eigenvalues --    0.29915   0.34234   0.39720   0.39725   0.72069
 Alpha virt. eigenvalues --    0.72073   0.79078   0.85317   0.91950   0.91950
 Alpha virt. eigenvalues --    0.94581   0.98016   0.98017   1.00042   1.01214
 Alpha virt. eigenvalues --    1.01216   1.01339   1.05600   1.05601   1.07169
 Alpha virt. eigenvalues --    1.07175   1.09627   1.11334   1.11336   1.15560
 Alpha virt. eigenvalues --    1.15560   1.28050   1.37778   1.44652   1.44657
 Alpha virt. eigenvalues --    1.61269   1.78119   1.97532   1.97537   2.12868
 Alpha virt. eigenvalues --    2.17415   2.17422   2.34678   2.58461   2.58470
 Alpha virt. eigenvalues --    2.95266   2.95272   2.95292
          Condensed to atoms (all electrons):
               1          2          3          4          5          6
     1  C    4.526518   0.416299   0.416299   0.416292  -0.012098   0.179820
     2  H    0.416299   0.535063  -0.016167  -0.016170   0.010249  -0.027380
     3  H    0.416299  -0.016167   0.535063  -0.016170   0.010249  -0.027380
     4  H    0.416292  -0.016170  -0.016170   0.535178   0.010224  -0.027378
     5  Br  -0.012098   0.010249   0.010249   0.010224  35.910799   0.001292
     6  Cl   0.179820  -0.027380  -0.027380  -0.027378   0.001292  17.321423
 Mulliken charges:
               1
     1  C    0.056872
     2  H    0.098106
     3  H    0.098107
     4  H    0.098025
     5  Br  -0.930713
     6  Cl  -0.420396
 Sum of Mulliken charges =  -1.00000
 Mulliken charges with hydrogens summed into heavy atoms:
               1
     1  C    0.351110
     5  Br  -0.930713
     6  Cl  -0.420396
 Electronic spatial extent (au):  <R**2>=           1249.3248
 Charge=             -1.0000 electrons
 Dipole moment (field-independent basis, Debye):
    X=              0.0000    Y=             -0.0035    Z=              3.3583  Tot=              3.3583
 Quadrupole moment (field-independent basis, Debye-Ang):
   XX=            -41.6578   YY=            -41.6576   ZZ=            -77.2181
   XY=              0.0000   XZ=              0.0001   YZ=              0.0606
 Traceless Quadrupole moment (field-independent basis, Debye-Ang):
   XX=             11.8533   YY=             11.8536   ZZ=            -23.7069
   XY=              0.0000   XZ=              0.0001   YZ=              0.0606
 Octapole moment (field-independent basis, Debye-Ang**2):
  XXX=             -0.0042  YYY=              0.9328  ZZZ=            -73.0443  XYY=              0.0043
  XXY=             -0.8511  XXZ=            -12.3126  XZZ=              0.0001  YZZ=              0.0833
  YYZ=            -12.3084  XYZ=              0.0000
 Hexadecapole moment (field-independent basis, Debye-Ang**3):
 XXXX=            -54.5024 YYYY=            -54.5088 ZZZZ=          -1649.8479 XXXY=              0.0000
 XXXZ=             -0.0022 YYYX=              0.0000 YYYZ=              1.9572 ZZZX=              0.0024
 ZZZY=              1.4826 XXYY=            -18.1669 XXZZ=           -248.0627 YYZZ=           -248.0568
 XXYZ=             -0.4424 YYXZ=              0.0047 ZZXY=              0.0000
 N-N= 1.632747689371D+02 E-N=-7.681279197467D+03  KE= 3.070483112357D+03
 Calling FoFJK, ICntrl=      2127 FMM=F ISym2X=0 I1Cent= 0 IOpClX= 0 NMat=1 NMatS=1 NMatT=0.
 ***** Axes restored to original set *****
 -------------------------------------------------------------------
 Center     Atomic                   Forces (Hartrees/Bohr)
 Number     Number              X              Y              Z
 -------------------------------------------------------------------
      1        6           0.032621288    0.000051978    0.000000609
      2        1          -0.001371074    0.003985077   -0.006923362
      3        1          -0.001370919    0.003984743    0.006922774
      4        1          -0.001371950   -0.007998043   -0.000000009
      5       35          -0.003491861   -0.000003596   -0.000000001
      6       17          -0.025015485   -0.000020159   -0.000000011
 -------------------------------------------------------------------
 Cartesian Forces:  Max     0.032621288 RMS     0.010272255

 GradGradGradGradGradGradGradGradGradGradGradGradGradGradGradGradGradGrad
 Berny optimization.
 FormGI is forming the generalized inverse of G from B-inverse, IUseBI=4.
 Internal  Forces:  Max     0.025015492 RMS     0.005568443
 Search for a local minimum.
 Step number   1 out of a maximum of   36 on scan point     1 out of    16
 All quantities printed in internal units (Hartrees-Bohrs-Radians)
 Mixed Optimization -- RFO/linear search
 Second derivative matrix not updated -- first step.
 ITU=  0
     Eigenvalues ---    0.01219   0.01224   0.03834   0.05904   0.05939
     Eigenvalues ---    0.10430   0.10666   0.15073   0.34806   0.35256
     Eigenvalues ---    0.357311000.000001000.000001000.000001000.00000
     Eigenvalues --- 1000.000001000.000001000.000001000.000001000.00000
     Eigenvalues --- 1000.000001000.000001000.000001000.000001000.00000
     Eigenvalues --- 1000.00000
 RFO step:  Lambda=-4.53894204D-03 EMin= 1.21865882D-02
 Linear search not attempted -- first point.
 Iteration  1 RMS(Cart)=  0.02992168 RMS(Int)=  0.00002637
 Iteration  2 RMS(Cart)=  0.00001231 RMS(Int)=  0.00001682
 Iteration  3 RMS(Cart)=  0.00000000 RMS(Int)=  0.00001682
 Iteration  1 RMS(Cart)=  0.00000430 RMS(Int)=  0.00000884
 Iteration  2 RMS(Cart)=  0.00000248 RMS(Int)=  0.00000986
 Iteration  3 RMS(Cart)=  0.00000143 RMS(Int)=  0.00001120
 Iteration  4 RMS(Cart)=  0.00000082 RMS(Int)=  0.00001215
 Variable       Old X    -DE/DX   Delta X   Delta X   Delta X     New X
                                 (Linear)    (Quad)   (Total)
    R1        2.01645   0.00739   0.00000   0.02045   0.02045   2.03690
    R2        2.01645   0.00735   0.00000   0.02044   0.02044   2.03689
    R3        2.01644   0.00729   0.00000   0.02047   0.02047   2.03690
    R4        5.88069   0.00090   0.00000   0.00000  -0.00001   5.88068
    R5        3.77946  -0.02502   0.00000  -0.16111  -0.16111   3.61834
    R6        5.73282   0.00115   0.00000   0.00903   0.00907   5.74189
    R7        5.73282   0.00115   0.00000   0.00903   0.00908   5.74189
    R8        5.73519   0.00114   0.00000   0.00842   0.00847   5.74366
    A1        1.99428  -0.00009   0.00000   0.00254   0.00251   1.99679
    A2        1.99451  -0.00021   0.00000   0.00265   0.00261   1.99713
    A3        1.81673   0.00022   0.00000  -0.00331  -0.00329   1.81345
    A4        1.99451  -0.00021   0.00000   0.00265   0.00261   1.99713
    A5        1.81673   0.00022   0.00000  -0.00331  -0.00329   1.81345
    A6        1.81676   0.00024   0.00000  -0.00346  -0.00343   1.81333
    A7        0.59982   0.00212   0.00000   0.00580   0.00579   0.60561
    A8        0.59973   0.00209   0.00000   0.00586   0.00585   0.60558
    A9        0.59973   0.00208   0.00000   0.00586   0.00585   0.60558
   A10        3.14119   0.00000   0.00000   0.00015   0.00015   3.14134
   A11        3.14087  -0.00001   0.00000   0.00028   0.00027   3.14115
    D1       -2.34336   0.00060   0.00000  -0.00955  -0.00951  -2.35287
    D2        2.09421   0.00008   0.00000  -0.00004  -0.00003   2.09418
    D3       -2.09449   0.00004   0.00000  -0.00002  -0.00002  -2.09450
    D4        2.09449  -0.00004   0.00000   0.00002   0.00002   2.09450
    D5       -0.55070  -0.00015   0.00000  -0.00064  -0.00064  -0.55134
    D6        0.55079   0.00021   0.00000   0.00052   0.00052   0.55131
    D7       -0.55079  -0.00021   0.00000  -0.00052  -0.00052  -0.55131
         Item               Value     Threshold  Converged?
 Maximum Force            0.025015     0.000450     NO 
 RMS     Force            0.005672     0.000300     NO 
 Maximum Displacement     0.135070     0.001800     NO 
 RMS     Displacement     0.029924     0.001200     NO 
 Predicted change in Energy=-2.332561D-03
 GradGradGradGradGradGradGradGradGradGradGradGradGradGradGradGradGradGrad

                          Input orientation:                          
 ---------------------------------------------------------------------
 Center     Atomic      Atomic             Coordinates (Angstroms)
 Number     Number       Type             X           Y           Z
 ---------------------------------------------------------------------
      1          6           0        1.254712   -0.000683    0.000001
      2          1           0        0.995546    0.522478   -0.906068
      3          1           0        0.995548    0.522477    0.906069
      4          1           0        0.996202   -1.047108    0.000001
      5         35           0       -1.857210   -0.000177   -0.000001
      6         17           0        3.169457   -0.000035   -0.000001
 ---------------------------------------------------------------------
                    Distance matrix (angstroms):
                    1          2          3          4          5
     1  C    0.000000
     2  H    1.077880   0.000000
     3  H    1.077878   1.812136   0.000000
     4  H    1.077883   1.812336   1.812335   0.000000
     5  Br   3.111922   3.038477   3.038480   3.039412   0.000000
     6  Cl   1.914745   2.412440   2.412439   2.412343   5.026667
                    6
     6  Cl   0.000000
 Stoichiometry    CH3BrCl(1-)
 Framework group  C1[X(CH3BrCl)]
 Deg. of freedom    12
 Full point group                 C1      NOp   1
 Largest Abelian subgroup         C1      NOp   1
 Largest concise Abelian subgroup C1      NOp   1
                         Standard orientation:                         
 ---------------------------------------------------------------------
 Center     Atomic      Atomic             Coordinates (Angstroms)
 Number     Number       Type             X           Y           Z
 ---------------------------------------------------------------------
      1          6           0        1.264646    0.000476    0.000000
      2          1           0        1.005483   -0.525376    0.904511
      3          1           0        1.005486   -0.519993   -0.907618
      4          1           0        1.006132    1.046895    0.003108
      5         35           0       -1.847275   -0.000046    0.000000
      6         17           0        3.179392   -0.000163    0.000000
 ---------------------------------------------------------------------
 Rotational constants (GHZ):         152.6814250           0.7840096           0.7840090
 Standard basis: CC-pVDZ (5D, 7F)
 There are    78 symmetry adapted cartesian basis functions of A   symmetry.
 There are    74 symmetry adapted basis functions of A   symmetry.
    74 basis functions,   272 primitive gaussians,    78 cartesian basis functions
    31 alpha electrons       31 beta electrons
       nuclear repulsion energy       165.7227864350 Hartrees.
 NAtoms=    6 NActive=    6 NUniq=    6 SFac= 1.00D+00 NAtFMM=   60 NAOKFM=F Big=F
 Integral buffers will be    131072 words long.
 Raffenetti 1 integral format.
 Two-electron integral symmetry is turned on.
 One-electron integrals computed using PRISM.
 NBasis=    74 RedAO= T EigKep=  1.82D-02  NBF=    74
 NBsUse=    74 1.00D-06 EigRej= -1.00D+00 NBFU=    74
 Initial guess from the checkpoint file:  "C:\Users\chemistry\Documents\Gruppe H\inputCC.chk"
 B after Tr=     0.000000    0.000000    0.000000
         Rot=    0.707105   -0.001050   -0.707104   -0.002208 Ang= -90.00 deg.
 ExpMin= 1.22D-01 ExpMax= 6.40D+05 ExpMxC= 6.18D+03 IAcc=3 IRadAn=         5 AccDes= 0.00D+00
 Harris functional with IExCor=  205 and IRadAn=       5 diagonalized for initial guess.
 HarFok:  IExCor=  205 AccDes= 0.00D+00 IRadAn=         5 IDoV= 1 UseB2=F ITyADJ=14
 ICtDFT=  3500011 ScaDFX=  1.000000  1.000000  1.000000  1.000000
 FoFCou: FMM=F IPFlag=           0 FMFlag=      100000 FMFlg1=           0
         NFxFlg=           0 DoJE=T BraDBF=F KetDBF=T FulRan=T
         wScrn=  0.000000 ICntrl=       500 IOpCl=  0 I1Cent=   200000004 NGrid=           0
         NMat0=    1 NMatS0=      1 NMatT0=    0 NMatD0=    1 NMtDS0=    0 NMtDT0=    0
 Petite list used in FoFCou.
 Keep R1 ints in memory in canonical form, NReq=4923054.
 Requested convergence on RMS density matrix=1.00D-08 within 128 cycles.
 Requested convergence on MAX density matrix=1.00D-06.
 Requested convergence on             energy=1.00D-06.
 No special actions if energy rises.
 SCF Done:  E(RHF) =  -3071.57178766     A.U. after    9 cycles
            NFock=  9  Conv=0.73D-08     -V/T= 2.0003
 Calling FoFJK, ICntrl=      2127 FMM=F ISym2X=0 I1Cent= 0 IOpClX= 0 NMat=1 NMatS=1 NMatT=0.
 ***** Axes restored to original set *****
 -------------------------------------------------------------------
 Center     Atomic                   Forces (Hartrees/Bohr)
 Number     Number              X              Y              Z
 -------------------------------------------------------------------
      1        6           0.024933559    0.000030307   -0.000001028
      2        1          -0.003976598   -0.000881658    0.001489914
      3        1          -0.003976915   -0.000881026   -0.001488879
      4        1          -0.003994330    0.001735224   -0.000000029
      5       35          -0.005464315   -0.000001662    0.000000008
      6       17          -0.007521401   -0.000001184    0.000000014
 -------------------------------------------------------------------
 Cartesian Forces:  Max     0.024933559 RMS     0.006517917

 GradGradGradGradGradGradGradGradGradGradGradGradGradGradGradGradGradGrad
 Berny optimization.
 Using GEDIIS/GDIIS optimizer.
 FormGI is forming the generalized inverse of G from B-inverse, IUseBI=4.
 Internal  Forces:  Max     0.007521401 RMS     0.002330751
 Search for a local minimum.
 Step number   2 out of a maximum of   36 on scan point     1 out of    16
 All quantities printed in internal units (Hartrees-Bohrs-Radians)
 Mixed Optimization -- RFO/linear search
 Update second derivatives using D2CorX and points    1    2
 DE= -2.91D-03 DEPred=-2.33D-03 R= 1.25D+00
 TightC=F SS=  1.41D+00  RLast= 1.66D-01 DXNew= 5.0454D-01 4.9926D-01
 Trust test= 1.25D+00 RLast= 1.66D-01 DXMaxT set to 4.99D-01
 ITU=  1  0
 Use linear search instead of GDIIS.
     Eigenvalues ---    0.01223   0.01228   0.03671   0.05889   0.05970
     Eigenvalues ---    0.10363   0.10645   0.11689   0.34885   0.35290
     Eigenvalues ---    0.376931000.000001000.000001000.000001000.00000
     Eigenvalues --- 1000.000001000.000001000.000001000.000001000.00000
     Eigenvalues --- 1000.000001000.000001000.000001000.000001000.00000
     Eigenvalues --- 1000.00000
 RFO step:  Lambda=-1.27379808D-03 EMin= 1.22276323D-02
 Quartic linear search produced a step of  0.25461.
 Iteration  1 RMS(Cart)=  0.01823359 RMS(Int)=  0.00073938
 Iteration  2 RMS(Cart)=  0.00036105 RMS(Int)=  0.00062645
 Iteration  3 RMS(Cart)=  0.00000011 RMS(Int)=  0.00062645
 Iteration  1 RMS(Cart)=  0.00002112 RMS(Int)=  0.00004258
 Iteration  2 RMS(Cart)=  0.00001206 RMS(Int)=  0.00004751
 Iteration  3 RMS(Cart)=  0.00000689 RMS(Int)=  0.00005394
 Iteration  4 RMS(Cart)=  0.00000393 RMS(Int)=  0.00005841
 Iteration  5 RMS(Cart)=  0.00000225 RMS(Int)=  0.00006117
 Iteration  6 RMS(Cart)=  0.00000128 RMS(Int)=  0.00006280
 Iteration  7 RMS(Cart)=  0.00000073 RMS(Int)=  0.00006375
 Variable       Old X    -DE/DX   Delta X   Delta X   Delta X     New X
                                 (Linear)    (Quad)   (Total)
    R1        2.03690  -0.00064   0.00521  -0.00202   0.00329   2.04018
    R2        2.03689  -0.00051   0.00520  -0.00202   0.00325   2.04015
    R3        2.03690  -0.00060   0.00521  -0.00201   0.00331   2.04022
    R4        5.88068   0.00489   0.00000   0.00000   0.00001   5.88069
    R5        3.61834  -0.00752  -0.04102  -0.05922  -0.10024   3.51810
    R6        5.74189   0.00020   0.00231  -0.06713  -0.06511   5.67678
    R7        5.74189   0.00019   0.00231  -0.06713  -0.06511   5.67679
    R8        5.74366   0.00004   0.00216  -0.06760  -0.06567   5.67799
    A1        1.99679  -0.00093   0.00064  -0.02429  -0.02533   1.97146
    A2        1.99713  -0.00203   0.00067  -0.02603  -0.02663   1.97050
    A3        1.81345   0.00206  -0.00084   0.03310   0.03236   1.84580
    A4        1.99713  -0.00204   0.00067  -0.02603  -0.02662   1.97050
    A5        1.81345   0.00207  -0.00084   0.03310   0.03235   1.84580
    A6        1.81333   0.00237  -0.00087   0.03318   0.03228   1.84561
    A7        0.60561  -0.00038   0.00147   0.00180   0.00296   0.60857
    A8        0.60558  -0.00061   0.00149   0.00147   0.00274   0.60832
    A9        0.60558  -0.00059   0.00149   0.00147   0.00273   0.60831
   A10        3.14134  -0.00008   0.00004   0.00005   0.00012   3.14146
   A11        3.14115  -0.00014   0.00007   0.00009   0.00021   3.14136
    D1       -2.35287   0.00587  -0.00242   0.09443   0.09005  -2.26282
    D2        2.09418   0.00073  -0.00001   0.00127   0.00101   2.09519
    D3       -2.09450   0.00036   0.00000   0.00064   0.00051  -2.09400
    D4        2.09450  -0.00037   0.00000  -0.00064  -0.00051   2.09400
    D5       -0.55134   0.00045  -0.00016   0.00050   0.00021  -0.55113
    D6        0.55131   0.00016   0.00013   0.00049   0.00053   0.55184
    D7       -0.55131  -0.00015  -0.00013  -0.00049  -0.00053  -0.55185
         Item               Value     Threshold  Converged?
 Maximum Force            0.007521     0.000450     NO 
 RMS     Force            0.001842     0.000300     NO 
 Maximum Displacement     0.051260     0.001800     NO 
 RMS     Displacement     0.018309     0.001200     NO 
 Predicted change in Energy=-8.412247D-04
 GradGradGradGradGradGradGradGradGradGradGradGradGradGradGradGradGradGrad

                          Input orientation:                          
 ---------------------------------------------------------------------
 Center     Atomic      Atomic             Coordinates (Angstroms)
 Number     Number       Type             X           Y           Z
 ---------------------------------------------------------------------
      1          6           0        1.280633   -0.000441    0.000003
      2          1           0        0.987356    0.518668   -0.900048
      3          1           0        0.987366    0.518659    0.900040
      4          1           0        0.987864   -1.039624    0.000003
      5         35           0       -1.831296   -0.000237    0.000000
      6         17           0        3.142331   -0.000073    0.000003
 ---------------------------------------------------------------------
                    Distance matrix (angstroms):
                    1          2          3          4          5
     1  C    0.000000
     2  H    1.079619   0.000000
     3  H    1.079600   1.800088   0.000000
     4  H    1.079637   1.799546   1.799531   0.000000
     5  Br   3.111928   3.004022   3.004027   3.004661   0.000000
     6  Cl   1.861699   2.392300   2.392284   2.392153   4.973627
                    6
     6  Cl   0.000000
 Stoichiometry    CH3BrCl(1-)
 Framework group  C1[X(CH3BrCl)]
 Deg. of freedom    12
 Full point group                 C1      NOp   1
 Largest Abelian subgroup         C1      NOp   1
 Largest concise Abelian subgroup C1      NOp   1
                         Standard orientation:                         
 ---------------------------------------------------------------------
 Center     Atomic      Atomic             Coordinates (Angstroms)
 Number     Number       Type             X           Y           Z
 ---------------------------------------------------------------------
      1          6           0        1.281113    0.000004    0.000225
      2          1           0        0.987846   -0.905944   -0.508528
      3          1           0        0.987857    0.894026   -0.529172
      4          1           0        0.988327    0.011926    1.039335
      5         35           0       -1.830815    0.000000   -0.000032
      6         17           0        3.142812   -0.000001   -0.000110
 ---------------------------------------------------------------------
 Rotational constants (GHZ):         154.8178921           0.7994506           0.7994489
 Standard basis: CC-pVDZ (5D, 7F)
 There are    78 symmetry adapted cartesian basis functions of A   symmetry.
 There are    74 symmetry adapted basis functions of A   symmetry.
    74 basis functions,   272 primitive gaussians,    78 cartesian basis functions
    31 alpha electrons       31 beta electrons
       nuclear repulsion energy       167.4903829291 Hartrees.
 NAtoms=    6 NActive=    6 NUniq=    6 SFac= 1.00D+00 NAtFMM=   60 NAOKFM=F Big=F
 Integral buffers will be    131072 words long.
 Raffenetti 1 integral format.
 Two-electron integral symmetry is turned on.
 One-electron integrals computed using PRISM.
 NBasis=    74 RedAO= T EigKep=  1.69D-02  NBF=    74
 NBsUse=    74 1.00D-06 EigRej= -1.00D+00 NBFU=    74
 Initial guess from the checkpoint file:  "C:\Users\chemistry\Documents\Gruppe H\inputCC.chk"
 B after Tr=     0.000000    0.000000    0.000000
         Rot=    0.712195   -0.701982    0.000000    0.000000 Ang= -89.17 deg.
 ExpMin= 1.22D-01 ExpMax= 6.40D+05 ExpMxC= 6.18D+03 IAcc=3 IRadAn=         5 AccDes= 0.00D+00
 Harris functional with IExCor=  205 and IRadAn=       5 diagonalized for initial guess.
 HarFok:  IExCor=  205 AccDes= 0.00D+00 IRadAn=         5 IDoV= 1 UseB2=F ITyADJ=14
 ICtDFT=  3500011 ScaDFX=  1.000000  1.000000  1.000000  1.000000
 FoFCou: FMM=F IPFlag=           0 FMFlag=      100000 FMFlg1=           0
         NFxFlg=           0 DoJE=T BraDBF=F KetDBF=T FulRan=T
         wScrn=  0.000000 ICntrl=       500 IOpCl=  0 I1Cent=   200000004 NGrid=           0
         NMat0=    1 NMatS0=      1 NMatT0=    0 NMatD0=    1 NMtDS0=    0 NMtDT0=    0
 Petite list used in FoFCou.
 Keep R1 ints in memory in canonical form, NReq=4923375.
 Requested convergence on RMS density matrix=1.00D-08 within 128 cycles.
 Requested convergence on MAX density matrix=1.00D-06.
 Requested convergence on             energy=1.00D-06.
 No special actions if energy rises.
 SCF Done:  E(RHF) =  -3071.57278892     A.U. after    9 cycles
            NFock=  9  Conv=0.65D-08     -V/T= 2.0003
 Calling FoFJK, ICntrl=      2127 FMM=F ISym2X=0 I1Cent= 0 IOpClX= 0 NMat=1 NMatS=1 NMatT=0.
 ***** Axes restored to original set *****
 -------------------------------------------------------------------
 Center     Atomic                   Forces (Hartrees/Bohr)
 Number     Number              X              Y              Z
 -------------------------------------------------------------------
      1        6           0.012285530   -0.000104107   -0.000012037
      2        1          -0.002294484   -0.000883889    0.001645249
      3        1          -0.002298805   -0.000876683   -0.001633042
      4        1          -0.002290317    0.001857681   -0.000000142
      5       35          -0.007194404   -0.000001885    0.000000044
      6       17           0.001792481    0.000008883   -0.000000072
 -------------------------------------------------------------------
 Cartesian Forces:  Max     0.012285530 RMS     0.003590783

 GradGradGradGradGradGradGradGradGradGradGradGradGradGradGradGradGradGrad
 Berny optimization.
 Using GEDIIS/GDIIS optimizer.
 FormGI is forming the generalized inverse of G from B-inverse, IUseBI=4.
 Internal  Forces:  Max     0.004755919 RMS     0.001643960
 Search for a local minimum.
 Step number   3 out of a maximum of   36 on scan point     1 out of    16
 All quantities printed in internal units (Hartrees-Bohrs-Radians)
 Mixed Optimization -- En-DIIS/RFO-DIIS
 Update second derivatives using D2CorX and points    1    2    3
 DE= -1.00D-03 DEPred=-8.41D-04 R= 1.19D+00
 TightC=F SS=  1.41D+00  RLast= 1.90D-01 DXNew= 8.3966D-01 5.7081D-01
 Trust test= 1.19D+00 RLast= 1.90D-01 DXMaxT set to 5.71D-01
 ITU=  1  1  0
 Use linear search instead of GDIIS.
     Eigenvalues ---    0.01220   0.01228   0.02520   0.05536   0.05683
     Eigenvalues ---    0.10348   0.10678   0.17803   0.34868   0.35304
     Eigenvalues ---    0.386841000.000001000.000001000.000001000.00000
     Eigenvalues --- 1000.000001000.000001000.000001000.000001000.00000
     Eigenvalues --- 1000.000001000.000001000.000001000.000001000.00000
     Eigenvalues --- 1000.00000
 RFO step:  Lambda=-1.79967967D-04 EMin= 1.21964901D-02
 Quartic linear search produced a step of  0.23459.
 Iteration  1 RMS(Cart)=  0.00830871 RMS(Int)=  0.00034871
 Iteration  2 RMS(Cart)=  0.00010657 RMS(Int)=  0.00032936
 Iteration  3 RMS(Cart)=  0.00000001 RMS(Int)=  0.00032936
 Iteration  1 RMS(Cart)=  0.00001062 RMS(Int)=  0.00002121
 Iteration  2 RMS(Cart)=  0.00000604 RMS(Int)=  0.00002367
 Iteration  3 RMS(Cart)=  0.00000344 RMS(Int)=  0.00002686
 Iteration  4 RMS(Cart)=  0.00000196 RMS(Int)=  0.00002907
 Iteration  5 RMS(Cart)=  0.00000111 RMS(Int)=  0.00003043
 Iteration  6 RMS(Cart)=  0.00000063 RMS(Int)=  0.00003123
 Variable       Old X    -DE/DX   Delta X   Delta X   Delta X     New X
                                 (Linear)    (Quad)   (Total)
    R1        2.04018  -0.00107   0.00077  -0.00086  -0.00004   2.04015
    R2        2.04015  -0.00095   0.00076  -0.00082  -0.00002   2.04012
    R3        2.04022  -0.00102   0.00078  -0.00084   0.00000   2.04022
    R4        5.88069   0.00476   0.00000   0.00000   0.00000   5.88069
    R5        3.51810   0.00179  -0.02352   0.01044  -0.01308   3.50502
    R6        5.67678   0.00084  -0.01527  -0.02047  -0.03589   5.64089
    R7        5.67679   0.00084  -0.01527  -0.02038  -0.03580   5.64099
    R8        5.67799   0.00069  -0.01541  -0.02111  -0.03662   5.64137
    A1        1.97146  -0.00092  -0.00594  -0.00836  -0.01517   1.95629
    A2        1.97050  -0.00179  -0.00625  -0.00875  -0.01563   1.95487
    A3        1.84580   0.00167   0.00759   0.01002   0.01767   1.86347
    A4        1.97050  -0.00180  -0.00625  -0.00874  -0.01563   1.95487
    A5        1.84580   0.00167   0.00759   0.01002   0.01767   1.86347
    A6        1.84561   0.00196   0.00757   0.01032   0.01788   1.86348
    A7        0.60857  -0.00060   0.00070   0.00026   0.00079   0.60936
    A8        0.60832  -0.00078   0.00064   0.00022   0.00073   0.60905
    A9        0.60831  -0.00076   0.00064   0.00022   0.00073   0.60904
   A10        3.14146  -0.00007   0.00003  -0.00001   0.00004   3.14150
   A11        3.14136  -0.00013   0.00005   0.00004   0.00012   3.14147
    D1       -2.26282   0.00453   0.02113   0.02749   0.04757  -2.21525
    D2        2.09519   0.00057   0.00024   0.00021   0.00030   2.09550
    D3       -2.09400   0.00028   0.00012   0.00011   0.00015  -2.09384
    D4        2.09400  -0.00029  -0.00012  -0.00010  -0.00015   2.09385
    D5       -0.55113   0.00038   0.00005   0.00008   0.00006  -0.55107
    D6        0.55184   0.00010   0.00012   0.00008   0.00015   0.55199
    D7       -0.55185  -0.00009  -0.00013  -0.00009  -0.00016  -0.55200
         Item               Value     Threshold  Converged?
 Maximum Force            0.001792     0.000450     NO 
 RMS     Force            0.000837     0.000300     NO 
 Maximum Displacement     0.019546     0.001800     NO 
 RMS     Displacement     0.008338     0.001200     NO 
 Predicted change in Energy=-1.451213D-04
 GradGradGradGradGradGradGradGradGradGradGradGradGradGradGradGradGradGrad

                          Input orientation:                          
 ---------------------------------------------------------------------
 Center     Atomic      Atomic             Coordinates (Angstroms)
 Number     Number       Type             X           Y           Z
 ---------------------------------------------------------------------
      1          6           0        1.290976   -0.000360    0.000010
      2          1           0        0.979408    0.515945   -0.895471
      3          1           0        0.979444    0.515942    0.895493
      4          1           0        0.979625   -1.034128    0.000014
      5         35           0       -1.820952   -0.000357   -0.000025
      6         17           0        3.145754   -0.000090   -0.000019
 ---------------------------------------------------------------------
                    Distance matrix (angstroms):
                    1          2          3          4          5
     1  C    0.000000
     2  H    1.079599   0.000000
     3  H    1.079587   1.790964   0.000000
     4  H    1.079637   1.790146   1.790140   0.000000
     5  Br   3.111928   2.985031   2.985085   2.985283   0.000000
     6  Cl   1.854779   2.400246   2.400236   2.400281   4.966706
                    6
     6  Cl   0.000000
 Stoichiometry    CH3BrCl(1-)
 Framework group  C1[X(CH3BrCl)]
 Deg. of freedom    12
 Full point group                 C1      NOp   1
 Largest Abelian subgroup         C1      NOp   1
 Largest concise Abelian subgroup C1      NOp   1
                         Standard orientation:                         
 ---------------------------------------------------------------------
 Center     Atomic      Atomic             Coordinates (Angstroms)
 Number     Number       Type             X           Y           Z
 ---------------------------------------------------------------------
      1          6           0        1.283946    0.000026    0.000114
      2          1           0        0.972398   -0.897121   -0.513305
      3          1           0        0.972439    0.893834   -0.519096
      4          1           0        0.972550    0.003375    1.033863
      5         35           0       -1.827982   -0.000003   -0.000025
      6         17           0        3.138724   -0.000009   -0.000075
 ---------------------------------------------------------------------
 Rotational constants (GHZ):         156.4313263           0.8016330           0.8016305
 Standard basis: CC-pVDZ (5D, 7F)
 There are    78 symmetry adapted cartesian basis functions of A   symmetry.
 There are    74 symmetry adapted basis functions of A   symmetry.
    74 basis functions,   272 primitive gaussians,    78 cartesian basis functions
    31 alpha electrons       31 beta electrons
       nuclear repulsion energy       167.7721664851 Hartrees.
 NAtoms=    6 NActive=    6 NUniq=    6 SFac= 1.00D+00 NAtFMM=   60 NAOKFM=F Big=F
 Integral buffers will be    131072 words long.
 Raffenetti 1 integral format.
 Two-electron integral symmetry is turned on.
 One-electron integrals computed using PRISM.
 NBasis=    74 RedAO= T EigKep=  1.69D-02  NBF=    74
 NBsUse=    74 1.00D-06 EigRej= -1.00D+00 NBFU=    74
 Initial guess from the checkpoint file:  "C:\Users\chemistry\Documents\Gruppe H\inputCC.chk"
 B after Tr=     0.000000    0.000000    0.000000
         Rot=    0.999992   -0.004119    0.000001    0.000000 Ang=  -0.47 deg.
 Keep R1 ints in memory in canonical form, NReq=4923403.
 Requested convergence on RMS density matrix=1.00D-08 within 128 cycles.
 Requested convergence on MAX density matrix=1.00D-06.
 Requested convergence on             energy=1.00D-06.
 No special actions if energy rises.
 SCF Done:  E(RHF) =  -3071.57295089     A.U. after    8 cycles
            NFock=  8  Conv=0.80D-08     -V/T= 2.0003
 Calling FoFJK, ICntrl=      2127 FMM=F ISym2X=0 I1Cent= 0 IOpClX= 0 NMat=1 NMatS=1 NMatT=0.
 ***** Axes restored to original set *****
 -------------------------------------------------------------------
 Center     Atomic                   Forces (Hartrees/Bohr)
 Number     Number              X              Y              Z
 -------------------------------------------------------------------
      1        6           0.007794943   -0.000139176   -0.000007818
      2        1          -0.000391882   -0.000334078    0.000747649
      3        1          -0.000394908   -0.000329768   -0.000740078
      4        1          -0.000356122    0.000805352    0.000000048
      5       35          -0.007642659   -0.000002097    0.000000088
      6       17           0.000990628   -0.000000233    0.000000111
 -------------------------------------------------------------------
 Cartesian Forces:  Max     0.007794943 RMS     0.002609642

 GradGradGradGradGradGradGradGradGradGradGradGradGradGradGradGradGradGrad
 Berny optimization.
 Using GEDIIS/GDIIS optimizer.
 FormGI is forming the generalized inverse of G from B-inverse, IUseBI=4.
 Internal  Forces:  Max     0.003657256 RMS     0.001138659
 Search for a local minimum.
 Step number   4 out of a maximum of   36 on scan point     1 out of    16
 All quantities printed in internal units (Hartrees-Bohrs-Radians)
 Mixed Optimization -- En-DIIS/RFO-DIIS
 Swapping is turned off.
 Update second derivatives using D2CorX and points    1    2    3    4
 DE= -1.62D-04 DEPred=-1.45D-04 R= 1.12D+00
 TightC=F SS=  1.41D+00  RLast= 8.95D-02 DXNew= 9.5998D-01 2.6847D-01
 Trust test= 1.12D+00 RLast= 8.95D-02 DXMaxT set to 5.71D-01
 ITU=  1  1  1  0
     Eigenvalues ---    0.01217   0.01227   0.02524   0.05383   0.05523
     Eigenvalues ---    0.10324   0.10691   0.15194   0.34841   0.35305
     Eigenvalues ---    0.376311000.000001000.000001000.000001000.00000
     Eigenvalues --- 1000.000001000.000001000.000001000.000001000.00000
     Eigenvalues --- 1000.000001000.000001000.000001000.000001000.00000
     Eigenvalues --- 1000.00000
 En-DIIS/RFO-DIIS/Sim-DIIS IScMMF=       -3 using points:     4    3
 RFO step:  Lambda=-1.90439811D-05.
 DidBck=F Rises=F RFO-DIIS coefs:    1.20363   -0.20363
 Iteration  1 RMS(Cart)=  0.00226541 RMS(Int)=  0.00004506
 Iteration  2 RMS(Cart)=  0.00000441 RMS(Int)=  0.00004480
 Iteration  3 RMS(Cart)=  0.00000000 RMS(Int)=  0.00004480
 Iteration  1 RMS(Cart)=  0.00000145 RMS(Int)=  0.00000290
 Iteration  2 RMS(Cart)=  0.00000083 RMS(Int)=  0.00000323
 Variable       Old X    -DE/DX   Delta X   Delta X   Delta X     New X
                                 (Linear)    (Quad)   (Total)
    R1        2.04015  -0.00062  -0.00001  -0.00126  -0.00126   2.03888
    R2        2.04012  -0.00055   0.00000  -0.00124  -0.00124   2.03888
    R3        2.04022  -0.00059   0.00000  -0.00128  -0.00128   2.03894
    R4        5.88069   0.00366   0.00000   0.00000   0.00000   5.88069
    R5        3.50502   0.00099  -0.00266   0.00544   0.00278   3.50780
    R6        5.64089   0.00139  -0.00731  -0.00019  -0.00751   5.63338
    R7        5.64099   0.00138  -0.00729  -0.00019  -0.00750   5.63350
    R8        5.64137   0.00130  -0.00746  -0.00051  -0.00797   5.63339
    A1        1.95629  -0.00059  -0.00309  -0.00078  -0.00398   1.95231
    A2        1.95487  -0.00104  -0.00318   0.00024  -0.00303   1.95184
    A3        1.86347   0.00095   0.00360   0.00012   0.00373   1.86720
    A4        1.95487  -0.00105  -0.00318   0.00024  -0.00303   1.95184
    A5        1.86347   0.00095   0.00360   0.00012   0.00372   1.86719
    A6        1.86348   0.00110   0.00364   0.00009   0.00373   1.86721
    A7        0.60936  -0.00046   0.00016  -0.00053  -0.00039   0.60897
    A8        0.60905  -0.00056   0.00015  -0.00030  -0.00017   0.60888
    A9        0.60904  -0.00055   0.00015  -0.00030  -0.00017   0.60888
   A10        3.14150  -0.00004   0.00001   0.00006   0.00007   3.14157
   A11        3.14147  -0.00007   0.00002   0.00011   0.00014   3.14161
    D1       -2.21525   0.00249   0.00969   0.00065   0.01020  -2.20505
    D2        2.09550   0.00030   0.00006  -0.00078  -0.00074   2.09475
    D3       -2.09384   0.00015   0.00003  -0.00039  -0.00037  -2.09421
    D4        2.09385  -0.00015  -0.00003   0.00039   0.00037   2.09422
    D5       -0.55107   0.00022   0.00001  -0.00040  -0.00040  -0.55148
    D6        0.55199   0.00004   0.00003  -0.00026  -0.00023   0.55176
    D7       -0.55200  -0.00003  -0.00003   0.00026   0.00023  -0.55177
         Item               Value     Threshold  Converged?
 Maximum Force            0.000991     0.000450     NO 
 RMS     Force            0.000327     0.000300     NO 
 Maximum Displacement     0.005770     0.001800     NO 
 RMS     Displacement     0.002266     0.001200     NO 
 Predicted change in Energy=-9.521714D-06
 GradGradGradGradGradGradGradGradGradGradGradGradGradGradGradGradGradGrad

                          Input orientation:                          
 ---------------------------------------------------------------------
 Center     Atomic      Atomic             Coordinates (Angstroms)
 Number     Number       Type             X           Y           Z
 ---------------------------------------------------------------------
      1          6           0        1.292558   -0.000430    0.000009
      2          1           0        0.977383    0.515335   -0.893717
      3          1           0        0.977421    0.515336    0.893746
      4          1           0        0.977455   -1.032354    0.000013
      5         35           0       -1.819370   -0.000605   -0.000028
      6         17           0        3.148807   -0.000330   -0.000022
 ---------------------------------------------------------------------
                    Distance matrix (angstroms):
                    1          2          3          4          5
     1  C    0.000000
     2  H    1.078931   0.000000
     3  H    1.078931   1.787462   0.000000
     4  H    1.078962   1.787203   1.787205   0.000000
     5  Br   3.111928   2.981057   2.981118   2.981063   0.000000
     6  Cl   1.856249   2.404097   2.404091   2.404131   4.968177
                    6
     6  Cl   0.000000
 Stoichiometry    CH3BrCl(1-)
 Framework group  C1[X(CH3BrCl)]
 Deg. of freedom    12
 Full point group                 C1      NOp   1
 Largest Abelian subgroup         C1      NOp   1
 Largest concise Abelian subgroup C1      NOp   1
                         Standard orientation:                         
 ---------------------------------------------------------------------
 Center     Atomic      Atomic             Coordinates (Angstroms)
 Number     Number       Type             X           Y           Z
 ---------------------------------------------------------------------
      1          6           0        1.283716    0.000026   -0.000010
      2          1           0        0.968567   -0.891784   -0.519094
      3          1           0        0.968609    0.895666   -0.512482
      4          1           0        0.968557   -0.003786    1.031891
      5         35           0       -1.828212   -0.000003   -0.000004
      6         17           0        3.139965   -0.000009   -0.000008
 ---------------------------------------------------------------------
 Rotational constants (GHZ):         156.9791626           0.8012432           0.8012424
 Standard basis: CC-pVDZ (5D, 7F)
 There are    78 symmetry adapted cartesian basis functions of A   symmetry.
 There are    74 symmetry adapted basis functions of A   symmetry.
    74 basis functions,   272 primitive gaussians,    78 cartesian basis functions
    31 alpha electrons       31 beta electrons
       nuclear repulsion energy       167.7446315696 Hartrees.
 NAtoms=    6 NActive=    6 NUniq=    6 SFac= 1.00D+00 NAtFMM=   60 NAOKFM=F Big=F
 Integral buffers will be    131072 words long.
 Raffenetti 1 integral format.
 Two-electron integral symmetry is turned on.
 One-electron integrals computed using PRISM.
 NBasis=    74 RedAO= T EigKep=  1.69D-02  NBF=    74
 NBsUse=    74 1.00D-06 EigRej= -1.00D+00 NBFU=    74
 Initial guess from the checkpoint file:  "C:\Users\chemistry\Documents\Gruppe H\inputCC.chk"
 B after Tr=     0.000000    0.000000    0.000000
         Rot=    0.999994   -0.003468    0.000001    0.000000 Ang=  -0.40 deg.
 Keep R1 ints in memory in canonical form, NReq=4923403.
 Requested convergence on RMS density matrix=1.00D-08 within 128 cycles.
 Requested convergence on MAX density matrix=1.00D-06.
 Requested convergence on             energy=1.00D-06.
 No special actions if energy rises.
 SCF Done:  E(RHF) =  -3071.57296017     A.U. after    7 cycles
            NFock=  7  Conv=0.52D-08     -V/T= 2.0003
 Calling FoFJK, ICntrl=      2127 FMM=F ISym2X=0 I1Cent= 0 IOpClX= 0 NMat=1 NMatS=1 NMatT=0.
 ***** Axes restored to original set *****
 -------------------------------------------------------------------
 Center     Atomic                   Forces (Hartrees/Bohr)
 Number     Number              X              Y              Z
 -------------------------------------------------------------------
      1        6           0.007671462   -0.000056914   -0.000000815
      2        1           0.000026902    0.000004649    0.000046908
      3        1           0.000025942    0.000004911   -0.000046220
      4        1           0.000043794    0.000048563    0.000000117
      5       35          -0.007666680   -0.000000800    0.000000068
      6       17          -0.000101421   -0.000000410   -0.000000057
 -------------------------------------------------------------------
 Cartesian Forces:  Max     0.007671462 RMS     0.002556613

 GradGradGradGradGradGradGradGradGradGradGradGradGradGradGradGradGradGrad
 Berny optimization.
 Using GEDIIS/GDIIS optimizer.
 FormGI is forming the generalized inverse of G from B-inverse, IUseBI=4.
 Internal  Forces:  Max     0.003291237 RMS     0.000983411
 Search for a local minimum.
 Step number   5 out of a maximum of   36 on scan point     1 out of    16
 All quantities printed in internal units (Hartrees-Bohrs-Radians)
 Mixed Optimization -- En-DIIS/RFO-DIIS
 Swapping is turned off.
 Update second derivatives using D2CorX and points    1    2    3    4    5
 DE= -9.28D-06 DEPred=-9.52D-06 R= 9.75D-01
 TightC=F SS=  1.41D+00  RLast= 1.92D-02 DXNew= 9.5998D-01 5.7704D-02
 Trust test= 9.75D-01 RLast= 1.92D-02 DXMaxT set to 5.71D-01
 ITU=  1  1  1  1  0
     Eigenvalues ---    0.01216   0.01227   0.02379   0.05347   0.05488
     Eigenvalues ---    0.10312   0.10693   0.15911   0.34821   0.35300
     Eigenvalues ---    0.369581000.000001000.000001000.000001000.00000
     Eigenvalues --- 1000.000001000.000001000.000001000.000001000.00000
     Eigenvalues --- 1000.000001000.000001000.000001000.000001000.00000
     Eigenvalues --- 1000.00000
 En-DIIS/RFO-DIIS/Sim-DIIS IScMMF=       -3 using points:     5    4    3
 RFO step:  Lambda=-1.30401194D-07.
 DidBck=F Rises=F RFO-DIIS coefs:    0.93193    0.08335   -0.01528
 Iteration  1 RMS(Cart)=  0.00014364 RMS(Int)=  0.00000349
 Iteration  2 RMS(Cart)=  0.00000001 RMS(Int)=  0.00000349
 Iteration  1 RMS(Cart)=  0.00000069 RMS(Int)=  0.00000138
 Variable       Old X    -DE/DX   Delta X   Delta X   Delta X     New X
                                 (Linear)    (Quad)   (Total)
    R1        2.03888  -0.00005   0.00009  -0.00020  -0.00011   2.03877
    R2        2.03888   0.00000   0.00008  -0.00020  -0.00011   2.03877
    R3        2.03894  -0.00005   0.00009  -0.00024  -0.00015   2.03879
    R4        5.88069   0.00329   0.00000   0.00000   0.00000   5.88069
    R5        3.50780  -0.00010  -0.00039  -0.00025  -0.00064   3.50716
    R6        5.63338   0.00154  -0.00004   0.00008   0.00004   5.63342
    R7        5.63350   0.00154  -0.00004   0.00005   0.00001   5.63350
    R8        5.63339   0.00147  -0.00002   0.00002   0.00000   5.63339
    A1        1.95231  -0.00044   0.00004  -0.00025  -0.00022   1.95208
    A2        1.95184  -0.00082  -0.00003   0.00017   0.00013   1.95196
    A3        1.86720   0.00073   0.00002  -0.00003  -0.00001   1.86719
    A4        1.95184  -0.00082  -0.00003   0.00016   0.00013   1.95197
    A5        1.86719   0.00073   0.00002  -0.00002  -0.00001   1.86718
    A6        1.86721   0.00086   0.00002  -0.00004  -0.00002   1.86719
    A7        0.60897  -0.00027   0.00004  -0.00012  -0.00008   0.60888
    A8        0.60888  -0.00036   0.00002  -0.00004  -0.00002   0.60886
    A9        0.60888  -0.00035   0.00002  -0.00004  -0.00001   0.60886
   A10        3.14157  -0.00003   0.00000   0.00002   0.00002   3.14159
   A11        3.14161  -0.00006  -0.00001   0.00002   0.00001   3.14162
    D1       -2.20505   0.00189   0.00003   0.00008   0.00010  -2.20495
    D2        2.09475   0.00025   0.00006  -0.00032  -0.00027   2.09449
    D3       -2.09421   0.00013   0.00003  -0.00016  -0.00014  -2.09435
    D4        2.09422  -0.00013  -0.00003   0.00016   0.00013   2.09435
    D5       -0.55148   0.00017   0.00003  -0.00017  -0.00014  -0.55162
    D6        0.55176   0.00004   0.00002  -0.00010  -0.00008   0.55168
    D7       -0.55177  -0.00004  -0.00002   0.00010   0.00008  -0.55169
         Item               Value     Threshold  Converged?
 Maximum Force            0.000101     0.000450     YES
 RMS     Force            0.000027     0.000300     YES
 Maximum Displacement     0.000562     0.001800     YES
 RMS     Displacement     0.000144     0.001200     YES
 Predicted change in Energy=-4.468362D-08
 Optimization completed.
    -- Stationary point found.
                           ----------------------------
                           !   Optimized Parameters   !
                           ! (Angstroms and Degrees)  !
 --------------------------                            --------------------------
 ! Name  Definition              Value          Derivative Info.                !
 --------------------------------------------------------------------------------
 ! R1    R(1,2)                  1.0789         -DE/DX =   -0.0001              !
 ! R2    R(1,3)                  1.0789         -DE/DX =    0.0                 !
 ! R3    R(1,4)                  1.079          -DE/DX =    0.0                 !
 ! R4    R(1,5)                  3.1119         -DE/DX =    0.0033              !
 ! R5    R(1,6)                  1.8562         -DE/DX =   -0.0001              !
 ! R6    R(2,5)                  2.9811         -DE/DX =    0.0015              !
 ! R7    R(3,5)                  2.9811         -DE/DX =    0.0015              !
 ! R8    R(4,5)                  2.9811         -DE/DX =    0.0015              !
 ! A1    A(2,1,3)              111.859          -DE/DX =   -0.0004              !
 ! A2    A(2,1,4)              111.8319         -DE/DX =   -0.0008              !
 ! A3    A(2,1,6)              106.9824         -DE/DX =    0.0007              !
 ! A4    A(3,1,4)              111.8322         -DE/DX =   -0.0008              !
 ! A5    A(3,1,6)              106.982          -DE/DX =    0.0007              !
 ! A6    A(4,1,6)              106.9834         -DE/DX =    0.0009              !
 ! A7    A(2,5,3)               34.8912         -DE/DX =   -0.0003              !
 ! A8    A(2,5,4)               34.8863         -DE/DX =   -0.0004              !
 ! A9    A(3,5,4)               34.886          -DE/DX =   -0.0004              !
 ! A10   L(5,1,6,2,-1)         179.9987         -DE/DX =    0.0                 !
 ! A11   L(5,1,6,2,-2)         180.001          -DE/DX =   -0.0001              !
 ! D1    D(2,1,4,3)           -126.3401         -DE/DX =    0.0019              !
 ! D2    D(2,1,6,3)            120.0206         -DE/DX =    0.0003              !
 ! D3    D(2,1,6,4)           -119.9896         -DE/DX =    0.0001              !
 ! D4    D(3,1,6,4)            119.9897         -DE/DX =   -0.0001              !
 ! D5    D(3,2,5,1)            -31.5972         -DE/DX =    0.0002              !
 ! D6    D(4,2,5,1)             31.6133         -DE/DX =    0.0                 !
 ! D7    D(4,3,5,1)            -31.6141         -DE/DX =    0.0                 !
 --------------------------------------------------------------------------------
 Iteration  1 RMS(Cart)=  0.01398456 RMS(Int)=  0.02797906
 Iteration  2 RMS(Cart)=  0.00018855 RMS(Int)=  0.02797796
 Iteration  3 RMS(Cart)=  0.00000348 RMS(Int)=  0.02797796
 Iteration  4 RMS(Cart)=  0.00000009 RMS(Int)=  0.02797796
 Iteration  1 RMS(Cart)=  0.00792603 RMS(Int)=  0.01597820
 Iteration  2 RMS(Cart)=  0.00451006 RMS(Int)=  0.01783366
 Iteration  3 RMS(Cart)=  0.00257506 RMS(Int)=  0.02024899
 Iteration  4 RMS(Cart)=  0.00147307 RMS(Int)=  0.02193291
 Iteration  5 RMS(Cart)=  0.00084358 RMS(Int)=  0.02297334
 Iteration  6 RMS(Cart)=  0.00048339 RMS(Int)=  0.02359095
 Iteration  7 RMS(Cart)=  0.00027709 RMS(Int)=  0.02395142
 Iteration  8 RMS(Cart)=  0.00015886 RMS(Int)=  0.02416011
 Iteration  9 RMS(Cart)=  0.00009109 RMS(Int)=  0.02428041
 Iteration 10 RMS(Cart)=  0.00005224 RMS(Int)=  0.02434961
 Iteration 11 RMS(Cart)=  0.00002996 RMS(Int)=  0.02438935
 Iteration 12 RMS(Cart)=  0.00001718 RMS(Int)=  0.02441217
 Iteration 13 RMS(Cart)=  0.00000985 RMS(Int)=  0.02442526
 Iteration 14 RMS(Cart)=  0.00000565 RMS(Int)=  0.02443277
 Iteration 15 RMS(Cart)=  0.00000324 RMS(Int)=  0.02443708
 Iteration 16 RMS(Cart)=  0.00000186 RMS(Int)=  0.02443955
 Iteration 17 RMS(Cart)=  0.00000107 RMS(Int)=  0.02444097
 Iteration 18 RMS(Cart)=  0.00000061 RMS(Int)=  0.02444178
 GradGradGradGradGradGradGradGradGradGradGradGradGradGradGradGradGradGrad

                          Input orientation:                          
 ---------------------------------------------------------------------
 Center     Atomic      Atomic             Coordinates (Angstroms)
 Number     Number       Type             X           Y           Z
 ---------------------------------------------------------------------
      1          6           0        1.253263   -0.001398    0.000234
      2          1           0        0.982218    0.529004   -0.901487
      3          1           0        0.982746    0.528317    0.900686
      4          1           0        0.985524   -1.047831    0.000194
      5         35           0       -1.758663   -0.004504    0.000084
      6         17           0        3.109167   -0.006638    0.000290
 ---------------------------------------------------------------------
                    Distance matrix (angstroms):
                    1          2          3          4          5
     1  C    0.000000
     2  H    1.080691   0.000000
     3  H    1.079162   1.802173   0.000000
     4  H    1.080142   1.816438   1.815251   0.000000
     5  Br   3.011928   2.934262   2.934332   2.935829   0.000000
     6  Cl   1.855912   2.371503   2.370350   2.365152   4.867831
                    6
     6  Cl   0.000000
 Stoichiometry    CH3BrCl(1-)
 Framework group  C1[X(CH3BrCl)]
 Deg. of freedom    12
 Full point group                 C1      NOp   1
 Largest Abelian subgroup         C1      NOp   1
 Largest concise Abelian subgroup C1      NOp   1
                         Standard orientation:                         
 ---------------------------------------------------------------------
 Center     Atomic      Atomic             Coordinates (Angstroms)
 Number     Number       Type             X           Y           Z
 ---------------------------------------------------------------------
      1          6           0        1.224201   -0.003318   -0.000167
      2          1           0        0.952988   -0.567140    0.880991
      3          1           0        0.953590   -0.498777   -0.919884
      4          1           0        0.956722    1.042443    0.039162
      5         35           0       -1.787724    0.000531    0.000005
      6         17           0        3.080107    0.001459    0.000032
 ---------------------------------------------------------------------
 Rotational constants (GHZ):         152.8267858           0.8361534           0.8361068
 Standard basis: CC-pVDZ (5D, 7F)
 There are    78 symmetry adapted cartesian basis functions of A   symmetry.
 There are    74 symmetry adapted basis functions of A   symmetry.
    74 basis functions,   272 primitive gaussians,    78 cartesian basis functions
    31 alpha electrons       31 beta electrons
       nuclear repulsion energy       170.6818126843 Hartrees.
 NAtoms=    6 NActive=    6 NUniq=    6 SFac= 1.00D+00 NAtFMM=   60 NAOKFM=F Big=F
 Integral buffers will be    131072 words long.
 Raffenetti 1 integral format.
 Two-electron integral symmetry is turned on.
 One-electron integrals computed using PRISM.
 NBasis=    74 RedAO= T EigKep=  1.64D-02  NBF=    74
 NBsUse=    74 1.00D-06 EigRej= -1.00D+00 NBFU=    74
 Initial guess from the checkpoint file:  "C:\Users\chemistry\Documents\Gruppe H\inputCC.chk"
 B after Tr=     0.000000    0.000000    0.000000
         Rot=    0.718977    0.695034   -0.000009    0.000011 Ang=  88.06 deg.
 Keep R1 ints in memory in canonical form, NReq=4923932.
 Requested convergence on RMS density matrix=1.00D-08 within 128 cycles.
 Requested convergence on MAX density matrix=1.00D-06.
 Requested convergence on             energy=1.00D-06.
 No special actions if energy rises.
 SCF Done:  E(RHF) =  -3071.57040563     A.U. after   10 cycles
            NFock= 10  Conv=0.29D-08     -V/T= 2.0003
 Calling FoFJK, ICntrl=      2127 FMM=F ISym2X=0 I1Cent= 0 IOpClX= 0 NMat=1 NMatS=1 NMatT=0.
 ***** Axes restored to original set *****
 -------------------------------------------------------------------
 Center     Atomic                   Forces (Hartrees/Bohr)
 Number     Number              X              Y              Z
 -------------------------------------------------------------------
      1        6           0.015447926    0.001059319   -0.000955978
      2        1          -0.004225926   -0.003199211    0.002872550
      3        1          -0.004537785   -0.002619605   -0.001907870
      4        1          -0.005355438    0.004393362   -0.000012266
      5       35          -0.011197058    0.000028145    0.000004192
      6       17           0.009868281    0.000337989   -0.000000628
 -------------------------------------------------------------------
 Cartesian Forces:  Max     0.015447926 RMS     0.005671409

 GradGradGradGradGradGradGradGradGradGradGradGradGradGradGradGradGradGrad
 Berny optimization.
 FormGI is forming the generalized inverse of G from B-inverse, IUseBI=4.
 Internal  Forces:  Max     0.009867287 RMS     0.003528891
 Search for a local minimum.
 Step number   1 out of a maximum of   36 on scan point     2 out of    16
 All quantities printed in internal units (Hartrees-Bohrs-Radians)
 Mixed Optimization -- RFO/linear search
 Second derivative matrix not updated -- first step.
 ITU=  0
     Eigenvalues ---    0.01227   0.01233   0.02401   0.05790   0.05883
     Eigenvalues ---    0.10406   0.10638   0.15910   0.34860   0.35225
     Eigenvalues ---    0.367541000.000001000.000001000.000001000.00000
     Eigenvalues --- 1000.000001000.000001000.000001000.000001000.00000
     Eigenvalues --- 1000.000001000.000001000.000001000.000001000.00000
     Eigenvalues --- 1000.00000
 RFO step:  Lambda=-1.39322364D-03 EMin= 1.22655869D-02
 Linear search not attempted -- first point.
 Iteration  1 RMS(Cart)=  0.01914681 RMS(Int)=  0.00072448
 Iteration  2 RMS(Cart)=  0.00033683 RMS(Int)=  0.00062620
 Iteration  3 RMS(Cart)=  0.00000010 RMS(Int)=  0.00062620
 Iteration  1 RMS(Cart)=  0.00001984 RMS(Int)=  0.00003975
 Iteration  2 RMS(Cart)=  0.00001130 RMS(Int)=  0.00004436
 Iteration  3 RMS(Cart)=  0.00000644 RMS(Int)=  0.00005035
 Iteration  4 RMS(Cart)=  0.00000366 RMS(Int)=  0.00005450
 Iteration  5 RMS(Cart)=  0.00000209 RMS(Int)=  0.00005705
 Iteration  6 RMS(Cart)=  0.00000119 RMS(Int)=  0.00005855
 Iteration  7 RMS(Cart)=  0.00000068 RMS(Int)=  0.00005942
 Variable       Old X    -DE/DX   Delta X   Delta X   Delta X     New X
                                 (Linear)    (Quad)   (Total)
    R1        2.04221  -0.00271   0.00000  -0.00439  -0.00429   2.03792
    R2        2.03932  -0.00130   0.00000  -0.00132  -0.00122   2.03810
    R3        2.04117  -0.00261   0.00000  -0.00453  -0.00442   2.03675
    R4        5.69172   0.00825   0.00000   0.00000   0.00000   5.69172
    R5        3.50717   0.00987   0.00000   0.02841   0.02841   3.53557
    R6        5.54495   0.00106   0.00000  -0.06369  -0.06395   5.48100
    R7        5.54508   0.00106   0.00000  -0.06459  -0.06485   5.48023
    R8        5.54791   0.00055   0.00000  -0.06239  -0.06262   5.48530
    A1        1.97407  -0.00059   0.00000  -0.01514  -0.01681   1.95727
    A2        1.99685  -0.00353   0.00000  -0.02953  -0.03072   1.96613
    A3        1.82577   0.00268   0.00000   0.02841   0.02861   1.85437
    A4        1.99702  -0.00359   0.00000  -0.02950  -0.03069   1.96633
    A5        1.82558   0.00274   0.00000   0.02846   0.02867   1.85424
    A6        1.81846   0.00427   0.00000   0.03647   0.03650   1.85496
    A7        0.62426  -0.00088   0.00000   0.00333   0.00306   0.62732
    A8        0.62921  -0.00168   0.00000  -0.00022  -0.00047   0.62873
    A9        0.62877  -0.00147   0.00000   0.00033   0.00008   0.62885
   A10        3.14353  -0.00045   0.00000  -0.00273  -0.00269   3.14084
   A11        3.14504  -0.00080   0.00000  -0.00546  -0.00540   3.13963
    D1       -2.31772   0.00829   0.00000   0.08422   0.08220  -2.23551
    D2        2.07940   0.00175   0.00000   0.00819   0.00786   2.08726
    D3       -2.10184   0.00085   0.00000   0.00412   0.00396  -2.09788
    D4        2.10195  -0.00090   0.00000  -0.00407  -0.00390   2.09804
    D5       -0.56168   0.00101   0.00000   0.00488   0.00489  -0.55679
    D6        0.54901   0.00042   0.00000   0.00288   0.00285   0.55187
    D7       -0.54934  -0.00025   0.00000  -0.00231  -0.00227  -0.55162
         Item               Value     Threshold  Converged?
 Maximum Force            0.009867     0.000450     NO 
 RMS     Force            0.002563     0.000300     NO 
 Maximum Displacement     0.053990     0.001800     NO 
 RMS     Displacement     0.019221     0.001200     NO 
 Predicted change in Energy=-7.099533D-04
 GradGradGradGradGradGradGradGradGradGradGradGradGradGradGradGradGradGrad

                          Input orientation:                          
 ---------------------------------------------------------------------
 Center     Atomic      Atomic             Coordinates (Angstroms)
 Number     Number       Type             X           Y           Z
 ---------------------------------------------------------------------
      1          6           0        1.266795   -0.002304   -0.000092
      2          1           0        0.964595    0.518176   -0.894946
      3          1           0        0.964375    0.518288    0.894738
      4          1           0        0.965884   -1.037247   -0.000203
      5         35           0       -1.745132    0.000072    0.000255
      6         17           0        3.137738   -0.000033    0.000250
 ---------------------------------------------------------------------
                    Distance matrix (angstroms):
                    1          2          3          4          5
     1  C    0.000000
     2  H    1.078419   0.000000
     3  H    1.078515   1.789684   0.000000
     4  H    1.077801   1.794411   1.794606   0.000000
     5  Br   3.011928   2.900420   2.900013   2.902694   0.000000
     6  Cl   1.870944   2.406755   2.406714   2.406816   4.882870
                    6
     6  Cl   0.000000
 Stoichiometry    CH3BrCl(1-)
 Framework group  C1[X(CH3BrCl)]
 Deg. of freedom    12
 Full point group                 C1      NOp   1
 Largest Abelian subgroup         C1      NOp   1
 Largest concise Abelian subgroup C1      NOp   1
                         Standard orientation:                         
 ---------------------------------------------------------------------
 Center     Atomic      Atomic             Coordinates (Angstroms)
 Number     Number       Type             X           Y           Z
 ---------------------------------------------------------------------
      1          6           0        1.221589    0.001992    0.000239
      2          1           0        0.919356   -0.502364    0.904268
      3          1           0        0.919110   -0.534503   -0.885128
      4          1           0        0.920770    1.036799   -0.018167
      5         35           0       -1.790338   -0.000121   -0.000027
      6         17           0        3.092532   -0.000451   -0.000086
 ---------------------------------------------------------------------
 Rotational constants (GHZ):         155.9953472           0.8318228           0.8318068
 Standard basis: CC-pVDZ (5D, 7F)
 There are    78 symmetry adapted cartesian basis functions of A   symmetry.
 There are    74 symmetry adapted basis functions of A   symmetry.
    74 basis functions,   272 primitive gaussians,    78 cartesian basis functions
    31 alpha electrons       31 beta electrons
       nuclear repulsion energy       170.3138551172 Hartrees.
 NAtoms=    6 NActive=    6 NUniq=    6 SFac= 1.00D+00 NAtFMM=   60 NAOKFM=F Big=F
 Integral buffers will be    131072 words long.
 Raffenetti 1 integral format.
 Two-electron integral symmetry is turned on.
 One-electron integrals computed using PRISM.
 NBasis=    74 RedAO= T EigKep=  1.71D-02  NBF=    74
 NBsUse=    74 1.00D-06 EigRej= -1.00D+00 NBFU=    74
 Initial guess from the checkpoint file:  "C:\Users\chemistry\Documents\Gruppe H\inputCC.chk"
 B after Tr=     0.000000    0.000000    0.000000
         Rot=    0.999616    0.027727   -0.000002   -0.000005 Ang=   3.18 deg.
 ExpMin= 1.22D-01 ExpMax= 6.40D+05 ExpMxC= 6.18D+03 IAcc=3 IRadAn=         5 AccDes= 0.00D+00
 Harris functional with IExCor=  205 and IRadAn=       5 diagonalized for initial guess.
 HarFok:  IExCor=  205 AccDes= 0.00D+00 IRadAn=         5 IDoV= 1 UseB2=F ITyADJ=14
 ICtDFT=  3500011 ScaDFX=  1.000000  1.000000  1.000000  1.000000
 FoFCou: FMM=F IPFlag=           0 FMFlag=      100000 FMFlg1=           0
         NFxFlg=           0 DoJE=T BraDBF=F KetDBF=T FulRan=T
         wScrn=  0.000000 ICntrl=       500 IOpCl=  0 I1Cent=   200000004 NGrid=           0
         NMat0=    1 NMatS0=      1 NMatT0=    0 NMatD0=    1 NMtDS0=    0 NMtDT0=    0
 Petite list used in FoFCou.
 Keep R1 ints in memory in canonical form, NReq=4923751.
 Requested convergence on RMS density matrix=1.00D-08 within 128 cycles.
 Requested convergence on MAX density matrix=1.00D-06.
 Requested convergence on             energy=1.00D-06.
 No special actions if energy rises.
 SCF Done:  E(RHF) =  -3071.57113625     A.U. after    9 cycles
            NFock=  9  Conv=0.79D-08     -V/T= 2.0003
 Calling FoFJK, ICntrl=      2127 FMM=F ISym2X=0 I1Cent= 0 IOpClX= 0 NMat=1 NMatS=1 NMatT=0.
 ***** Axes restored to original set *****
 -------------------------------------------------------------------
 Center     Atomic                   Forces (Hartrees/Bohr)
 Number     Number              X              Y              Z
 -------------------------------------------------------------------
      1        6           0.012471848    0.001270920    0.000061381
      2        1          -0.000128924   -0.000710748    0.000215422
      3        1          -0.000120042   -0.000764569   -0.000280938
      4        1          -0.000395193    0.000261812    0.000013566
      5       35          -0.011555751    0.000001730   -0.000001179
      6       17          -0.000271938   -0.000059146   -0.000008251
 -------------------------------------------------------------------
 Cartesian Forces:  Max     0.012471848 RMS     0.004029405

 GradGradGradGradGradGradGradGradGradGradGradGradGradGradGradGradGradGrad
 Berny optimization.
 Using GEDIIS/GDIIS optimizer.
 FormGI is forming the generalized inverse of G from B-inverse, IUseBI=4.
 Internal  Forces:  Max     0.005224162 RMS     0.001575172
 Search for a local minimum.
 Step number   2 out of a maximum of   36 on scan point     2 out of    16
 All quantities printed in internal units (Hartrees-Bohrs-Radians)
 Mixed Optimization -- En-DIIS/RFO-DIIS
 Update second derivatives using D2CorX and points    1    2
 DE= -7.31D-04 DEPred=-7.10D-04 R= 1.03D+00
 TightC=F SS=  1.41D+00  RLast= 1.59D-01 DXNew= 9.5998D-01 4.7564D-01
 Trust test= 1.03D+00 RLast= 1.59D-01 DXMaxT set to 5.71D-01
 ITU=  1  0
 Use linear search instead of GDIIS.
     Eigenvalues ---    0.01223   0.01231   0.02279   0.05399   0.05598
     Eigenvalues ---    0.10301   0.10675   0.16533   0.34840   0.35267
     Eigenvalues ---    0.366271000.000001000.000001000.000001000.00000
     Eigenvalues --- 1000.000001000.000001000.000001000.000001000.00000
     Eigenvalues --- 1000.000001000.000001000.000001000.000001000.00000
     Eigenvalues --- 1000.00000
 RFO step:  Lambda=-1.36587841D-05 EMin= 1.22322660D-02
 Quartic linear search produced a step of  0.05548.
 Iteration  1 RMS(Cart)=  0.00232837 RMS(Int)=  0.00004841
 Iteration  2 RMS(Cart)=  0.00000812 RMS(Int)=  0.00004746
 Iteration  3 RMS(Cart)=  0.00000000 RMS(Int)=  0.00004746
 Iteration  1 RMS(Cart)=  0.00000209 RMS(Int)=  0.00000418
 Iteration  2 RMS(Cart)=  0.00000119 RMS(Int)=  0.00000466
 Iteration  3 RMS(Cart)=  0.00000068 RMS(Int)=  0.00000529
 Variable       Old X    -DE/DX   Delta X   Delta X   Delta X     New X
                                 (Linear)    (Quad)   (Total)
    R1        2.03792  -0.00052  -0.00024  -0.00089  -0.00112   2.03679
    R2        2.03810  -0.00046  -0.00007  -0.00126  -0.00132   2.03678
    R3        2.03675  -0.00016  -0.00025   0.00015  -0.00009   2.03666
    R4        5.69172   0.00522   0.00000   0.00000   0.00000   5.69172
    R5        3.53557  -0.00027   0.00158  -0.00800  -0.00642   3.52915
    R6        5.48100   0.00224  -0.00355  -0.00422  -0.00779   5.47321
[...]
    R8        4.32847   0.04973  -0.00007   0.00000  -0.00007   4.32841
    A1        1.81110   0.01794   0.00015   0.00000   0.00015   1.81125
    A2        1.81024   0.02917   0.00018   0.00000   0.00018   1.81042
    A3        1.13237   0.01953   0.00045   0.00000   0.00045   1.13282
    A4        1.81382   0.02896  -0.00019   0.00000  -0.00019   1.81363
    A5        1.14577   0.01940   0.00007   0.00000   0.00007   1.14584
    A6        1.14233   0.02597  -0.00040   0.00000  -0.00040   1.14194
    A7        0.76604  -0.01881   0.00006   0.00000   0.00006   0.76609
    A8        0.76584  -0.01425   0.00005   0.00000   0.00005   0.76588
    A9        0.76678  -0.01450  -0.00002   0.00000  -0.00002   0.76676
   A10        3.13315  -0.00087   0.00059   0.00000   0.00059   3.13374
   A11        3.14405  -0.00110   0.00020   0.00000   0.00020   3.14426
    D1        1.88907   0.03922   0.00016   0.00000   0.00016   1.88923
    D2        2.09526  -0.00669  -0.00021   0.00000  -0.00021   2.09505
    D3       -2.09685  -0.00319  -0.00020   0.00000  -0.00020  -2.09705
    D4        2.09108   0.00350   0.00001   0.00000   0.00001   2.09108
    D5       -0.56951  -0.00163  -0.00001   0.00000  -0.00001  -0.56952
    D6        0.57045  -0.00264  -0.00012   0.00000  -0.00012   0.57033
    D7       -0.56767   0.00248  -0.00021   0.00000  -0.00021  -0.56788
         Item               Value     Threshold  Converged?
 Maximum Force            0.000143     0.000450     YES
 RMS     Force            0.000066     0.000300     YES
 Maximum Displacement     0.000725     0.001800     YES
 RMS     Displacement     0.000346     0.001200     YES
 Predicted change in Energy=-9.101048D-08
 Optimization completed.
    -- Stationary point found.
                           ----------------------------
                           !   Optimized Parameters   !
                           ! (Angstroms and Degrees)  !
 --------------------------                            --------------------------
 ! Name  Definition              Value          Derivative Info.                !
 --------------------------------------------------------------------------------
 ! R1    R(1,2)                  1.0881         -DE/DX =   -0.0369              !
 ! R2    R(1,3)                  1.0879         -DE/DX =   -0.0374              !
 ! R3    R(1,4)                  1.088          -DE/DX =   -0.0341              !
 ! R4    R(1,5)                  1.6119         -DE/DX =    0.1201              !
 ! R5    R(1,6)                  3.4555         -DE/DX =    0.0                 !
 ! R6    R(2,5)                  2.2901         -DE/DX =    0.0532              !
 ! R7    R(3,5)                  2.2908         -DE/DX =    0.0535              !
 ! R8    R(4,5)                  2.2905         -DE/DX =    0.0497              !
 ! A1    A(2,1,3)              103.7686         -DE/DX =    0.0179              !
 ! A2    A(2,1,4)              103.719          -DE/DX =    0.0292              !
 ! A3    A(2,1,6)               64.8798         -DE/DX =    0.0195              !
 ! A4    A(3,1,4)              103.9241         -DE/DX =    0.029               !
 ! A5    A(3,1,6)               65.6479         -DE/DX =    0.0194              !
 ! A6    A(4,1,6)               65.4508         -DE/DX =    0.026               !
 ! A7    A(2,5,3)               43.8908         -DE/DX =   -0.0188              !
 ! A8    A(2,5,4)               43.8792         -DE/DX =   -0.0143              !
 ! A9    A(3,5,4)               43.9334         -DE/DX =   -0.0145              !
 ! A10   L(5,1,6,2,-1)         179.5165         -DE/DX =   -0.0009              !
 ! A11   L(5,1,6,2,-2)         180.1411         -DE/DX =   -0.0011              !
 ! D1    D(2,1,4,3)            108.236          -DE/DX =    0.0392              !
 ! D2    D(2,1,6,3)            120.0495         -DE/DX =   -0.0067              !
 ! D3    D(2,1,6,4)           -120.1407         -DE/DX =   -0.0032              !
 ! D4    D(3,1,6,4)            119.8098         -DE/DX =    0.0035              !
 ! D5    D(3,2,5,1)            -32.6307         -DE/DX =   -0.0016              !
 ! D6    D(4,2,5,1)             32.6841         -DE/DX =   -0.0026              !
 ! D7    D(4,3,5,1)            -32.5251         -DE/DX =    0.0025              !
 --------------------------------------------------------------------------------
 Summary of Optimized Potential Surface Scan (add -3071.0 to energies):
                           1         2         3         4         5
     Eigenvalues --    -0.57296  -0.57114  -0.56848  -0.56478  -0.55994
           R1           1.07893   1.07782   1.07659   1.07511   1.07332
           R2           1.07893   1.07782   1.07659   1.07508   1.07315
           R3           1.07896   1.07776   1.07663   1.07507   1.07308
           R4           3.11193   3.01193   2.91193   2.81193   2.71193
           R5           1.85625   1.86755   1.88516   1.90908   1.94746
           R6           2.98106   2.89630   2.81849   2.74440   2.68111
           R7           2.98112   2.89617   2.81839   2.74474   2.68217
           R8           2.98106   2.89724   2.81697   2.74447   2.68198
           A1         111.85897 112.20969 113.01767 113.81940 115.08160
           A2         111.83192 112.31147 112.92762 113.82398 115.04102
           A3         106.98243 106.50035 105.69713 104.65572 103.00274
           A4         111.83220 112.31235 112.92675 113.82512 115.04569
           A5         106.98203 106.50531 105.70268 104.66629 103.05687
           A6         106.98337 106.47430 105.72600 104.66125 103.09435
           A7          34.89123  35.98629  37.15186  38.31735  39.47255
           A8          34.88633  36.00050  37.14234  38.32020  39.46351
           A9          34.88601  36.00138  37.14274  38.31745  39.45311
           A10        179.99867 179.99236 180.01739 179.98725 179.91527
           A11        180.00101 179.98405 180.03182 180.01149 179.98349
           D1        -126.34008-127.59384-129.78283-132.65464-137.28629
           D2         120.02062 119.93056 120.06074 119.99605 120.01083
           D3        -119.98964-120.03294-119.96877-119.99894-119.98113
           D4         119.98975 120.03650 119.97049 120.00502 120.00804
           D5         -31.59720 -31.74861 -31.81203 -31.96105 -32.06301
           D6          31.61332  31.70020  31.84967  31.95555  32.08365
           D7         -31.61410 -31.69785 -31.84880 -31.96022 -32.09828
                           6         7         8         9        10
     Eigenvalues --    -0.55416  -0.54935  -0.54981  -0.55286  -0.55677
           R1           1.07100   1.06959   1.07186   1.07381   1.07574
           R2           1.07094   1.06963   1.07186   1.07385   1.07578
           R3           1.07093   1.06955   1.07186   1.07383   1.07576
           R4           2.61193   2.51193   2.41192   2.31192   2.21192
           R5           2.02655   2.30353   2.62214   2.80382   2.94835
           R6           2.64329   2.69850   2.73196   2.70095   2.65453
           R7           2.64312   2.69750   2.73197   2.70118   2.65452
           R8           2.64312   2.69830   2.73199   2.70117   2.65454
           A1         117.01397 119.87070 119.08527 117.46792 115.73231
           A2         116.96383 119.91952 119.09268 117.49614 115.74372
           A3         100.09733  91.84023  84.48230  80.79250  77.83238
           A4         116.96929 119.89756 119.07902 117.44324 115.72972
           A5         100.11810  91.86286  84.47794  80.74515  77.94530
           A6         100.13550  91.86578  84.47756  80.72225  77.95681
           A7          40.42422  40.13269  39.53442  39.73182  40.14073
           A8          40.41272  40.13518  39.53580  39.73764  40.14288
           A9          40.41414  40.13913  39.53288  39.72498  40.14047
           A10        179.98598 180.00707 180.00208 180.03032 179.92159
           A11        179.98953 179.97088 179.99949 180.01311 179.99202
           D1        -146.16610-173.57585 161.07896 148.89418 140.12432
           D2         120.02784 119.97419 119.99932 119.99001 120.01359
           D3        -119.97997-120.02327-120.00693-120.02613-120.02172
           D4         119.99219 120.00254 119.99375 119.98386 119.96469
           D5         -32.17736 -32.18211 -32.09411 -32.11597 -32.16554
           D6          32.20500  32.15094  32.08985  32.10008  32.15808
           D7         -32.20087 -32.15479 -32.09706 -32.12847 -32.16568
                          11        12        13        14        15
     Eigenvalues --    -0.56035  -0.56216  -0.56017  -0.55134  -0.53107
           R1           1.07750   1.07933   1.08122   1.08318   1.08535
           R2           1.07747   1.07937   1.08121   1.08322   1.08542
           R3           1.07747   1.07935   1.08121   1.08319   1.08538
           R4           2.11193   2.01192   1.91193   1.81193   1.71193
           R5           3.06928   3.17761   3.26897   3.34637   3.40844
           R6           2.60049   2.54271   2.48217   2.41945   2.35549
           R7           2.60048   2.54276   2.48197   2.41918   2.35504
           R8           2.60083   2.54267   2.48202   2.41939   2.35530
           A1         113.91215 112.03087 110.08387 108.06336 105.98011
           A2         113.91803 112.04832 110.07574 108.05441 105.96529
           A3          75.60003  73.20374  71.14198  69.00539  67.01351
           A4         113.94955 112.03801 110.08305 108.07125 105.98019
           A5          75.51282  73.26542  71.20446  69.34681  67.54110
           A6          75.29307  73.24439  71.09023  69.11244  67.12190
           A7          40.64727  41.21664  41.83382  42.49110  43.18351
           A8          40.64583  41.22134  41.83115  42.48623  43.17569
           A9          40.65287  41.21900  41.83472  42.49423  43.18583
           A10        180.12314 179.96640 180.00449 179.86006 179.80660
           A11        180.11691 180.01554 180.06745 180.13469 180.24853
           D1         133.01454 126.90927 121.52694 116.70587 112.32047
           D2         119.90519 119.99383 119.97091 119.97207 119.93014
           D3        -120.00992-120.02519-120.02863-120.11611-120.21765
           D4         120.08489 119.98098 120.00046 119.91181 119.85221
           D5         -32.23373 -32.29310 -32.36273 -32.44941 -32.53671
           D6          32.21984  32.28455  32.36580  32.44503  32.53124
           D7         -32.20164 -32.29033 -32.36305 -32.43717 -32.52770
                          16
     Eigenvalues --    -0.49246
           R1           1.08806
           R2           1.08789
           R3           1.08797
           R4           1.61193
           R5           3.45552
           R6           2.29007
           R7           2.29077
           R8           2.29053
           A1         103.76862
           A2         103.71901
           A3          64.87980
           A4         103.92411
           A5          65.64793
           A6          65.45084
           A7          43.89076
           A8          43.87916
           A9          43.93342
           A10        179.51648
           A11        180.14105
           D1         108.23600
           D2         120.04950
           D3        -120.14067
           D4         119.80983
           D5         -32.63069
           D6          32.68414
           D7         -32.52509
 GradGradGradGradGradGradGradGradGradGradGradGradGradGradGradGradGradGrad

                          Input orientation:                          
 ---------------------------------------------------------------------
 Center     Atomic      Atomic             Coordinates (Angstroms)
 Number     Number       Type             X           Y           Z
 ---------------------------------------------------------------------
      1          6           0        0.391353   -0.000883    0.002423
      2          1           0        0.850741    0.492225   -0.851786
      3          1           0        0.842213    0.493617    0.860153
      4          1           0        0.843629   -0.990391    0.003102
      5         35           0       -1.220543    0.002395   -0.006649
      6         17           0        3.846861   -0.000013   -0.007242
 ---------------------------------------------------------------------
                    Distance matrix (angstroms):
                    1          2          3          4          5
     1  C    0.000000
     2  H    1.088056   0.000000
     3  H    1.087891   1.711961   0.000000
     4  H    1.087971   1.711442   1.713715   0.000000
     5  Br   1.611925   2.290067   2.290766   2.290530   0.000000
     6  Cl   3.455522   3.151553   3.166063   3.162334   5.067405
                    6
     6  Cl   0.000000
 Stoichiometry    CH3BrCl(1-)
 Framework group  C1[X(CH3BrCl)]
 Deg. of freedom    12
 Full point group                 C1      NOp   1
 Largest Abelian subgroup         C1      NOp   1
 Largest concise Abelian subgroup C1      NOp   1
                         Standard orientation:                         
 ---------------------------------------------------------------------
 Center     Atomic      Atomic             Coordinates (Angstroms)
 Number     Number       Type             X           Y           Z
 ---------------------------------------------------------------------
      1          6           0       -0.060488    0.003367    0.007373
      2          1           0        0.398760   -0.162888   -0.964900
      3          1           0        0.390041    0.931998    0.351139
      4          1           0        0.392260   -0.757190    0.640029
      5         35           0       -1.672385   -0.000613   -0.001346
      6         17           0        3.395020   -0.000627   -0.001375
 ---------------------------------------------------------------------
 Rotational constants (GHZ):         170.9422661           0.8092546           0.8092495

 **********************************************************************

            Population analysis using the SCF Density.

 **********************************************************************

 Orbital symmetries:
       Occupied  (A) (A) (A) (A) (A) (A) (A) (A) (A) (A) (A) (A)
                 (A) (A) (A) (A) (A) (A) (A) (A) (A) (A) (A) (A)
                 (A) (A) (A) (A) (A) (A) (A)
       Virtual   (A) (A) (A) (A) (A) (A) (A) (A) (A) (A) (A) (A)
                 (A) (A) (A) (A) (A) (A) (A) (A) (A) (A) (A) (A)
                 (A) (A) (A) (A) (A) (A) (A) (A) (A) (A) (A) (A)
                 (A) (A) (A) (A) (A) (A) (A)
 The electronic state is 1-A.
 Alpha  occ. eigenvalues -- -489.93393-104.48101 -65.07356 -58.42989 -58.42908
 Alpha  occ. eigenvalues --  -58.42908 -11.11086 -10.20211  -9.72820  -7.66840
 Alpha  occ. eigenvalues --   -7.66831  -7.66831  -7.34236  -7.33299  -7.33299
 Alpha  occ. eigenvalues --   -3.07939  -3.07400  -3.07400  -3.06445  -3.06445
 Alpha  occ. eigenvalues --   -1.02316  -0.73217  -0.71367  -0.47517  -0.47472
 Alpha  occ. eigenvalues --   -0.43765  -0.25999  -0.25978  -0.13463  -0.13448
 Alpha  occ. eigenvalues --   -0.13447
 Alpha virt. eigenvalues --    0.33729   0.39174   0.39216   0.41771   0.67089
 Alpha virt. eigenvalues --    0.71452   0.71463   0.81786   0.83119   0.83143
 Alpha virt. eigenvalues --    0.87663   0.87669   0.97764   0.97799   0.99457
 Alpha virt. eigenvalues --    1.02965   1.02994   1.07535   1.08904   1.08917
 Alpha virt. eigenvalues --    1.09918   1.24296   1.32236   1.32236   1.32784
 Alpha virt. eigenvalues --    1.32808   1.36932   1.45485   1.51103   1.51208
 Alpha virt. eigenvalues --    1.61604   1.85539   2.08744   2.08835   2.12570
 Alpha virt. eigenvalues --    2.12666   2.20248   2.49277   2.51144   2.51146
 Alpha virt. eigenvalues --    2.86495   2.93526   2.93549
          Condensed to atoms (all electrons):
               1          2          3          4          5          6
     1  C    4.671669   0.421067   0.421059   0.421064   0.155011  -0.008029
     2  H    0.421067   0.595441  -0.017849  -0.017856  -0.059819   0.009976
     3  H    0.421059  -0.017849   0.596853  -0.017814  -0.059850   0.009574
     4  H    0.421064  -0.017856  -0.017814   0.596492  -0.059858   0.009675
     5  Br   0.155011  -0.059819  -0.059850  -0.059858  35.185988   0.000920
     6  Cl  -0.008029   0.009976   0.009574   0.009675   0.000920  17.939013
 Mulliken charges:
               1
     1  C   -0.081842
     2  H    0.069039
     3  H    0.068027
     4  H    0.068297
     5  Br  -0.162393
     6  Cl  -0.961129
 Sum of Mulliken charges =  -1.00000
 Mulliken charges with hydrogens summed into heavy atoms:
               1
     1  C    0.123521
     5  Br  -0.162393
     6  Cl  -0.961129
 Electronic spatial extent (au):  <R**2>=           1195.2515
 Charge=             -1.0000 electrons
 Dipole moment (field-independent basis, Debye):
    X=            -13.1419    Y=              0.0057    Z=              0.0125  Tot=             13.1419
 Quadrupole moment (field-independent basis, Debye-Ang):
   XX=            -97.7564   YY=            -41.0573   ZZ=            -41.0632
   XY=              0.0104   XZ=              0.0225   YZ=             -0.0003
 Traceless Quadrupole moment (field-independent basis, Debye-Ang):
   XX=            -37.7974   YY=             18.9016   ZZ=             18.8958
   XY=              0.0104   XZ=              0.0225   YZ=             -0.0003
 Octapole moment (field-independent basis, Debye-Ang**2):
  XXX=           -240.6941  YYY=              0.2951  ZZZ=             -0.5546  XYY=            -20.1098
  XXY=              0.0134  XXZ=              0.0298  XZZ=            -20.1031  YZZ=             -0.3036
  YYZ=              0.5360  XYZ=              0.0002
 Hexadecapole moment (field-independent basis, Debye-Ang**3):
 XXXX=          -2017.7485 YYYY=            -52.7198 ZZZZ=            -52.7386 XXXY=              0.2072
 XXXZ=              0.4537 YYYX=              0.1582 YYYZ=              0.0077 ZZZX=             -0.1416
 ZZZY=             -0.0095 XXYY=           -248.6302 XXZZ=           -248.6230 YYZZ=            -17.5679
 XXYZ=              0.0004 YYXZ=              0.2456 ZZXY=             -0.1106
 N-N= 1.891768279831D+02 E-N=-7.730885430014D+03  KE= 3.071481408377D+03
 Unable to Open any file for archive entry.
 1|1|UNPC-LAPTOP-PP56KN09|Scan|RHF|CC-pVDZ|C1H3Br1Cl1(1-)|CHEMISTRY|01-
 Dec-2022|0||# opt=modredundant hf/cc-pvdz geom=connectivity||Title Car
 d Required||-1,1|C,0.3913530359,-0.0008825908,0.002422753|H,0.85074144
 85,0.4922252066,-0.8517856739|H,0.8422130836,0.4936173922,0.8601533417
 |H,0.8436294502,-0.9903911791,0.0031021129|Br,-1.2205431391,0.00239497
 48,-0.0066493014|Cl,3.846861121,-0.0000128037,-0.0072422392||Version=E
 M64W-G16RevC.01|State=1-A|HF=-3071.5729602,-3071.5711444,-3071.5684761
 ,-3071.5647773,-3071.559939,-3071.5541635,-3071.5493454,-3071.5498096,
 -3071.5528628,-3071.5567709,-3071.5603493,-3071.5621638,-3071.5601741,
 -3071.5513388,-3071.5310704,-3071.4924551|RMSD=5.197e-009,4.719e-009,3
 .103e-009,5.586e-009,3.052e-009,5.330e-009,2.356e-009,4.278e-009,9.018
 e-009,7.689e-009,3.173e-009,6.647e-009,8.462e-009,6.948e-009,2.717e-00
 9,2.014e-009|PG=C01 [X(C1H3Br1Cl1)]||@
 The archive entry for this job was punched.


 CHRISTMAS IS ON TOP OF A STEEP HILL.
 THE CLOSER YOU GET, THE STEEPER THE HILL IS.
          -- LINUS, OF PEANUTS
 Job cpu time:       0 days  0 hours  5 minutes 27.0 seconds.
 Elapsed time:       0 days  0 hours  4 minutes 45.4 seconds.
 File lengths (MBytes):  RWF=     10 Int=      0 D2E=      0 Chk=      2 Scr=      1
 Normal termination of Gaussian 16 at Thu Dec 01 12:26:32 2022.
