 Entering Link 1 = C:\G16W\l1.exe PID=     15824.
  
 Copyright (c) 1988-2019, Gaussian, Inc.  All Rights Reserved.
  
 This is part of the Gaussian(R) 16 program.  It is based on
 the Gaussian(R) 09 system (copyright 2009, Gaussian, Inc.),
 the Gaussian(R) 03 system (copyright 2003, Gaussian, Inc.),
 the Gaussian(R) 98 system (copyright 1998, Gaussian, Inc.),
 the Gaussian(R) 94 system (copyright 1995, Gaussian, Inc.),
 the Gaussian 92(TM) system (copyright 1992, Gaussian, Inc.),
 the Gaussian 90(TM) system (copyright 1990, Gaussian, Inc.),
 the Gaussian 88(TM) system (copyright 1988, Gaussian, Inc.),
 the Gaussian 86(TM) system (copyright 1986, Carnegie Mellon
 University), and the Gaussian 82(TM) system (copyright 1983,
 Carnegie Mellon University). Gaussian is a federally registered
 trademark of Gaussian, Inc.
  
 This software contains proprietary and confidential information,
 including trade secrets, belonging to Gaussian, Inc.
  
 This software is provided under written license and may be
 used, copied, transmitted, or stored only in accord with that
 written license.
  
 The following legend is applicable only to US Government
 contracts under FAR:
  
                    RESTRICTED RIGHTS LEGEND
  
 Use, reproduction and disclosure by the US Government is
 subject to restrictions as set forth in subparagraphs (a)
 and (c) of the Commercial Computer Software - Restricted
 Rights clause in FAR 52.227-19.
  
 Gaussian, Inc.
 340 Quinnipiac St., Bldg. 40, Wallingford CT 06492
  
  
 ---------------------------------------------------------------
 Warning -- This program may not be used in any manner that
 competes with the business of Gaussian, Inc. or will provide
 assistance to any competitor of Gaussian, Inc.  The licensee
 of this program is prohibited from giving any competitor of
 Gaussian, Inc. access to this program.  By using this program,
 the user acknowledges that Gaussian, Inc. is engaged in the
 business of creating and licensing software in the field of
 computational chemistry and represents and warrants to the
 licensee that it is not a competitor of Gaussian, Inc. and that
 it will not use this program in any manner prohibited above.
 ---------------------------------------------------------------
  

 Cite this work as:
 Gaussian 16, Revision C.01,
 M. J. Frisch, G. W. Trucks, H. B. Schlegel, G. E. Scuseria, 
 M. A. Robb, J. R. Cheeseman, G. Scalmani, V. Barone, 
 G. A. Petersson, H. Nakatsuji, X. Li, M. Caricato, A. V. Marenich, 
 J. Bloino, B. G. Janesko, R. Gomperts, B. Mennucci, H. P. Hratchian, 
 J. V. Ortiz, A. F. Izmaylov, J. L. Sonnenberg, D. Williams-Young, 
 F. Ding, F. Lipparini, F. Egidi, J. Goings, B. Peng, A. Petrone, 
 T. Henderson, D. Ranasinghe, V. G. Zakrzewski, J. Gao, N. Rega, 
 G. Zheng, W. Liang, M. Hada, M. Ehara, K. Toyota, R. Fukuda, 
 J. Hasegawa, M. Ishida, T. Nakajima, Y. Honda, O. Kitao, H. Nakai, 
 T. Vreven, K. Throssell, J. A. Montgomery, Jr., J. E. Peralta, 
 F. Ogliaro, M. J. Bearpark, J. J. Heyd, E. N. Brothers, K. N. Kudin, 
 V. N. Staroverov, T. A. Keith, R. Kobayashi, J. Normand, 
 K. Raghavachari, A. P. Rendell, J. C. Burant, S. S. Iyengar, 
 J. Tomasi, M. Cossi, J. M. Millam, M. Klene, C. Adamo, R. Cammi, 
 J. W. Ochterski, R. L. Martin, K. Morokuma, O. Farkas, 
 J. B. Foresman, and D. J. Fox, Gaussian, Inc., Wallingford CT, 2019.
 
 ******************************************
 Gaussian 16:  EM64W-G16RevC.01 30-May-2019
                01-Dec-2022 
 ******************************************
 %chk=C:\Users\chemistry\Documents\Gruppe H\inputCCopti.chk
 ---------------------------------------
 # opt freq hf/cc-pvdz geom=connectivity
 ---------------------------------------
 1/18=20,19=15,38=1,57=2/1,3;
 2/9=110,12=2,17=6,18=5,40=1/2;
 3/5=16,11=9,25=1,30=1,71=1/1,2,3;
 4//1;
 5/5=2,38=5/2;
 6/7=2,8=2,9=2,10=2,28=1/1;
 7//1,2,3,16;
 1/18=20,19=15/3(2);
 2/9=110/2;
 99//99;
 2/9=110/2;
 3/5=16,11=9,25=1,30=1,71=1/1,2,3;
 4/5=5,16=3,69=1/1;
 5/5=2,38=5/2;
 7//1,2,3,16;
 1/18=20,19=15/3(-5);
 2/9=110/2;
 6/7=2,8=2,9=2,10=2,19=2,28=1/1;
 99/9=1/99;
 -------------------
 Title Card Required
 -------------------
 Symbolic Z-matrix:
 Charge = -1 Multiplicity = 1
 C                     1.24093  -0.00079   0. 
 H                     0.98087   0.51663  -0.89625 
 H                     0.98087   0.51663   0.89625 
 H                     0.98166  -1.03587   0. 
 Br                   -1.871     0.00008   0. 
 Cl                    3.24093   0.00027   0. 
 
 Add virtual bond connecting atoms Cl6        and C1         Dist= 3.78D+00.
 Add virtual bond connecting atoms Br5        and C1         Dist= 5.88D+00.
 Add virtual bond connecting atoms Br5        and H2         Dist= 5.73D+00.
 Add virtual bond connecting atoms Br5        and H3         Dist= 5.73D+00.
 Add virtual bond connecting atoms Br5        and H4         Dist= 5.74D+00.

 GradGradGradGradGradGradGradGradGradGradGradGradGradGradGradGradGradGrad
 Berny optimization.
 Initialization pass.
                           ----------------------------
                           !    Initial Parameters    !
                           ! (Angstroms and Degrees)  !
 --------------------------                            --------------------------
 ! Name  Definition              Value          Derivative Info.                !
 --------------------------------------------------------------------------------
 ! R1    R(1,2)                  1.0671         estimate D2E/DX2                !
 ! R2    R(1,3)                  1.0671         estimate D2E/DX2                !
 ! R3    R(1,4)                  1.0671         estimate D2E/DX2                !
 ! R4    R(1,5)                  3.1119         estimate D2E/DX2                !
 ! R5    R(1,6)                  2.0            estimate D2E/DX2                !
 ! R6    R(2,5)                  3.0337         estimate D2E/DX2                !
 ! R7    R(3,5)                  3.0337         estimate D2E/DX2                !
 ! R8    R(4,5)                  3.0349         estimate D2E/DX2                !
 ! A1    A(2,1,3)              114.2638         estimate D2E/DX2                !
 ! A2    A(2,1,4)              114.2772         estimate D2E/DX2                !
 ! A3    A(2,1,6)              104.0912         estimate D2E/DX2                !
 ! A4    A(3,1,4)              114.2772         estimate D2E/DX2                !
 ! A5    A(3,1,6)              104.0911         estimate D2E/DX2                !
 ! A6    A(4,1,6)              104.0927         estimate D2E/DX2                !
 ! A7    A(2,5,3)               34.367          estimate D2E/DX2                !
 ! A8    A(2,5,4)               34.3622         estimate D2E/DX2                !
 ! A9    A(3,5,4)               34.3622         estimate D2E/DX2                !
 ! A10   L(5,1,6,2,-1)         179.9769         estimate D2E/DX2                !
 ! A11   L(5,1,6,2,-2)         179.9587         estimate D2E/DX2                !
 ! D1    D(2,1,4,3)           -134.2646         estimate D2E/DX2                !
 ! D2    D(2,1,6,3)            119.9896         estimate D2E/DX2                !
 ! D3    D(2,1,6,4)           -120.0052         estimate D2E/DX2                !
 ! D4    D(3,1,6,4)            120.0052         estimate D2E/DX2                !
 ! D5    D(3,2,5,1)            -31.5528         estimate D2E/DX2                !
 ! D6    D(4,2,5,1)             31.5579         estimate D2E/DX2                !
 ! D7    D(4,3,5,1)            -31.5579         estimate D2E/DX2                !
 --------------------------------------------------------------------------------
 Trust Radius=3.00D-01 FncErr=1.00D-07 GrdErr=1.00D-07 EigMax=2.50D+02 EigMin=1.00D-04
 Number of steps in this run=     36 maximum allowed number of steps=    100.
 GradGradGradGradGradGradGradGradGradGradGradGradGradGradGradGradGradGrad

                          Input orientation:                          
 ---------------------------------------------------------------------
 Center     Atomic      Atomic             Coordinates (Angstroms)
 Number     Number       Type             X           Y           Z
 ---------------------------------------------------------------------
      1          6           0        1.240930   -0.000790    0.000000
      2          1           0        0.980865    0.516630   -0.896247
      3          1           0        0.980865    0.516630    0.896248
      4          1           0        0.981657   -1.035865    0.000000
      5         35           0       -1.870995    0.000081    0.000000
      6         17           0        3.240933    0.000265    0.000000
 ---------------------------------------------------------------------
                    Distance matrix (angstroms):
                    1          2          3          4          5
     1  C    0.000000
     2  H    1.067059   0.000000
     3  H    1.067060   1.792495   0.000000
     4  H    1.067053   1.792624   1.792624   0.000000
     5  Br   3.111925   3.033675   3.033676   3.034931   0.000000
     6  Cl   2.000003   2.485518   2.485518   2.485537   5.111928
                    6
     6  Cl   0.000000
 This structure is nearly, but not quite of a higher symmetry.
 Consider Symm=Loose if the higher symmetry is desired.
 Stoichiometry    CH3BrCl(1-)
 Framework group  C1[X(CH3BrCl)]
 Deg. of freedom    12
 Full point group                 C1      NOp   1
 Largest Abelian subgroup         C1      NOp   1
 Largest concise Abelian subgroup C1      NOp   1
                         Standard orientation:                         
 ---------------------------------------------------------------------
 Center     Atomic      Atomic             Coordinates (Angstroms)
 Number     Number       Type             X           Y           Z
 ---------------------------------------------------------------------
      1          6           0       -0.000002   -0.001242    1.240930
      2          1           0       -0.897095   -0.516767    0.980017
      3          1           0        0.895398   -0.519703    0.980018
      4          1           0        0.001694    1.034254    0.983352
      5         35           0        0.000005    0.002983   -1.870993
      6         17           0       -0.000009   -0.005573    3.240928
 ---------------------------------------------------------------------
 Rotational constants (GHZ):         156.0532543           0.7605760           0.7605756
 Standard basis: CC-pVDZ (5D, 7F)
 There are    78 symmetry adapted cartesian basis functions of A   symmetry.
 There are    74 symmetry adapted basis functions of A   symmetry.
    74 basis functions,   272 primitive gaussians,    78 cartesian basis functions
    31 alpha electrons       31 beta electrons
       nuclear repulsion energy       163.2747689371 Hartrees.
 NAtoms=    6 NActive=    6 NUniq=    6 SFac= 1.00D+00 NAtFMM=   60 NAOKFM=F Big=F
 Integral buffers will be    131072 words long.
 Raffenetti 1 integral format.
 Two-electron integral symmetry is turned on.
 One-electron integrals computed using PRISM.
 NBasis=    74 RedAO= T EigKep=  2.02D-02  NBF=    74
 NBsUse=    74 1.00D-06 EigRej= -1.00D+00 NBFU=    74
 ExpMin= 1.22D-01 ExpMax= 6.40D+05 ExpMxC= 6.18D+03 IAcc=3 IRadAn=         5 AccDes= 0.00D+00
 Harris functional with IExCor=  205 and IRadAn=       5 diagonalized for initial guess.
 HarFok:  IExCor=  205 AccDes= 0.00D+00 IRadAn=         5 IDoV= 1 UseB2=F ITyADJ=14
 ICtDFT=  3500011 ScaDFX=  1.000000  1.000000  1.000000  1.000000
 FoFCou: FMM=F IPFlag=           0 FMFlag=      100000 FMFlg1=           0
         NFxFlg=           0 DoJE=T BraDBF=F KetDBF=T FulRan=T
         wScrn=  0.000000 ICntrl=       500 IOpCl=  0 I1Cent=   200000004 NGrid=           0
         NMat0=    1 NMatS0=      1 NMatT0=    0 NMatD0=    1 NMtDS0=    0 NMtDT0=    0
 Petite list used in FoFCou.
 Keep R1 ints in memory in canonical form, NReq=4922369.
 Requested convergence on RMS density matrix=1.00D-08 within 128 cycles.
 Requested convergence on MAX density matrix=1.00D-06.
 Requested convergence on             energy=1.00D-06.
 No special actions if energy rises.
 SCF Done:  E(RHF) =  -3071.56887851     A.U. after   11 cycles
            NFock= 11  Conv=0.73D-08     -V/T= 2.0004

 **********************************************************************

            Population analysis using the SCF Density.

 **********************************************************************

 Orbital symmetries:
       Occupied  (A) (A) (A) (A) (A) (A) (A) (A) (A) (A) (A) (A)
                 (A) (A) (A) (A) (A) (A) (A) (A) (A) (A) (A) (A)
                 (A) (A) (A) (A) (A) (A) (A)
       Virtual   (A) (A) (A) (A) (A) (A) (A) (A) (A) (A) (A) (A)
                 (A) (A) (A) (A) (A) (A) (A) (A) (A) (A) (A) (A)
                 (A) (A) (A) (A) (A) (A) (A) (A) (A) (A) (A) (A)
                 (A) (A) (A) (A) (A) (A) (A)
 The electronic state is 1-A.
 Alpha  occ. eigenvalues -- -489.76916-104.66614 -64.90370 -58.26021 -58.26015
 Alpha  occ. eigenvalues --  -58.26015 -11.16861 -10.39088  -9.54728  -7.85808
 Alpha  occ. eigenvalues --   -7.85559  -7.85559  -7.15525  -7.15472  -7.15472
 Alpha  occ. eigenvalues --   -2.89021  -2.88996  -2.88996  -2.88941  -2.88941
 Alpha  occ. eigenvalues --   -0.94016  -0.78762  -0.68684  -0.47638  -0.47634
 Alpha  occ. eigenvalues --   -0.35381  -0.29545  -0.29545  -0.14147  -0.14147
 Alpha  occ. eigenvalues --   -0.14146
 Alpha virt. eigenvalues --    0.29915   0.34234   0.39720   0.39725   0.72069
 Alpha virt. eigenvalues --    0.72073   0.79078   0.85317   0.91950   0.91950
 Alpha virt. eigenvalues --    0.94581   0.98016   0.98017   1.00042   1.01214
 Alpha virt. eigenvalues --    1.01216   1.01339   1.05600   1.05601   1.07169
 Alpha virt. eigenvalues --    1.07175   1.09627   1.11334   1.11336   1.15560
 Alpha virt. eigenvalues --    1.15560   1.28050   1.37778   1.44652   1.44657
 Alpha virt. eigenvalues --    1.61269   1.78119   1.97532   1.97537   2.12868
 Alpha virt. eigenvalues --    2.17415   2.17422   2.34678   2.58461   2.58470
 Alpha virt. eigenvalues --    2.95266   2.95272   2.95292
          Condensed to atoms (all electrons):
               1          2          3          4          5          6
     1  C    4.526518   0.416299   0.416299   0.416292  -0.012098   0.179820
     2  H    0.416299   0.535063  -0.016167  -0.016170   0.010249  -0.027380
     3  H    0.416299  -0.016167   0.535063  -0.016170   0.010249  -0.027380
     4  H    0.416292  -0.016170  -0.016170   0.535178   0.010224  -0.027378
     5  Br  -0.012098   0.010249   0.010249   0.010224  35.910799   0.001292
     6  Cl   0.179820  -0.027380  -0.027380  -0.027378   0.001292  17.321423
 Mulliken charges:
               1
     1  C    0.056872
     2  H    0.098106
     3  H    0.098107
     4  H    0.098025
     5  Br  -0.930713
     6  Cl  -0.420396
 Sum of Mulliken charges =  -1.00000
 Mulliken charges with hydrogens summed into heavy atoms:
               1
     1  C    0.351110
     5  Br  -0.930713
     6  Cl  -0.420396
 Electronic spatial extent (au):  <R**2>=           1249.3248
 Charge=             -1.0000 electrons
 Dipole moment (field-independent basis, Debye):
    X=              0.0000    Y=             -0.0035    Z=              3.3583  Tot=              3.3583
 Quadrupole moment (field-independent basis, Debye-Ang):
   XX=            -41.6578   YY=            -41.6576   ZZ=            -77.2181
   XY=              0.0000   XZ=              0.0001   YZ=              0.0606
 Traceless Quadrupole moment (field-independent basis, Debye-Ang):
   XX=             11.8533   YY=             11.8536   ZZ=            -23.7069
   XY=              0.0000   XZ=              0.0001   YZ=              0.0606
 Octapole moment (field-independent basis, Debye-Ang**2):
  XXX=             -0.0042  YYY=              0.9328  ZZZ=            -73.0443  XYY=              0.0043
  XXY=             -0.8511  XXZ=            -12.3126  XZZ=              0.0001  YZZ=              0.0833
  YYZ=            -12.3084  XYZ=              0.0000
 Hexadecapole moment (field-independent basis, Debye-Ang**3):
 XXXX=            -54.5024 YYYY=            -54.5088 ZZZZ=          -1649.8479 XXXY=              0.0000
 XXXZ=             -0.0022 YYYX=              0.0000 YYYZ=              1.9572 ZZZX=              0.0024
 ZZZY=              1.4826 XXYY=            -18.1669 XXZZ=           -248.0627 YYZZ=           -248.0568
 XXYZ=             -0.4424 YYXZ=              0.0047 ZZXY=              0.0000
 N-N= 1.632747689371D+02 E-N=-7.681279197467D+03  KE= 3.070483112357D+03
 Calling FoFJK, ICntrl=      2127 FMM=F ISym2X=0 I1Cent= 0 IOpClX= 0 NMat=1 NMatS=1 NMatT=0.
 ***** Axes restored to original set *****
 -------------------------------------------------------------------
 Center     Atomic                   Forces (Hartrees/Bohr)
 Number     Number              X              Y              Z
 -------------------------------------------------------------------
      1        6           0.032621288    0.000051978    0.000000609
      2        1          -0.001371074    0.003985077   -0.006923362
      3        1          -0.001370919    0.003984743    0.006922774
      4        1          -0.001371950   -0.007998043   -0.000000009
      5       35          -0.003491861   -0.000003596   -0.000000001
      6       17          -0.025015485   -0.000020159   -0.000000011
 -------------------------------------------------------------------
 Cartesian Forces:  Max     0.032621288 RMS     0.010272255

 GradGradGradGradGradGradGradGradGradGradGradGradGradGradGradGradGradGrad
 Berny optimization.
 FormGI is forming the generalized inverse of G from B-inverse, IUseBI=4.
 Internal  Forces:  Max     0.025015492 RMS     0.005568443
 Search for a local minimum.
 Step number   1 out of a maximum of   36
 All quantities printed in internal units (Hartrees-Bohrs-Radians)
 Mixed Optimization -- RFO/linear search
 Second derivative matrix not updated -- first step.
 ITU=  0
     Eigenvalues ---    0.01219   0.01224   0.01656   0.04912   0.05938
     Eigenvalues ---    0.06375   0.10498   0.10677   0.15073   0.34809
     Eigenvalues ---    0.35257   0.35768
 RFO step:  Lambda=-4.69684615D-03 EMin= 1.21865832D-02
 Linear search not attempted -- first point.
 Iteration  1 RMS(Cart)=  0.02811104 RMS(Int)=  0.00001145
 Iteration  2 RMS(Cart)=  0.00000664 RMS(Int)=  0.00000603
 Iteration  3 RMS(Cart)=  0.00000000 RMS(Int)=  0.00000603
 Variable       Old X    -DE/DX   Delta X   Delta X   Delta X     New X
                                 (Linear)    (Quad)   (Total)
    R1        2.01645   0.00739   0.00000   0.02084   0.02084   2.03729
    R2        2.01645   0.00735   0.00000   0.02083   0.02084   2.03729
    R3        2.01644   0.00729   0.00000   0.02086   0.02087   2.03731
    R4        5.88069   0.00090   0.00000   0.04876   0.04878   5.92946
    R5        3.77946  -0.02502   0.00000  -0.16095  -0.16095   3.61851
    R6        5.73282   0.00115   0.00000   0.04534   0.04533   5.77815
    R7        5.73282   0.00115   0.00000   0.04534   0.04533   5.77815
    R8        5.73519   0.00114   0.00000   0.04472   0.04471   5.77990
    A1        1.99428  -0.00009   0.00000  -0.00095  -0.00095   1.99333
    A2        1.99451  -0.00021   0.00000  -0.00117  -0.00117   1.99334
    A3        1.81673   0.00022   0.00000   0.00146   0.00146   1.81819
    A4        1.99451  -0.00021   0.00000  -0.00117  -0.00117   1.99334
    A5        1.81673   0.00022   0.00000   0.00146   0.00146   1.81819
    A6        1.81676   0.00024   0.00000   0.00132   0.00131   1.81808
    A7        0.59982   0.00212   0.00000   0.00131   0.00130   0.60112
    A8        0.59973   0.00209   0.00000   0.00130   0.00129   0.60103
    A9        0.59973   0.00208   0.00000   0.00130   0.00129   0.60103
   A10        3.14119   0.00000   0.00000   0.00015   0.00015   3.14134
   A11        3.14087  -0.00001   0.00000   0.00028   0.00027   3.14115
    D1       -2.34336   0.00060   0.00000   0.00396   0.00395  -2.33941
    D2        2.09421   0.00008   0.00000   0.00021   0.00021   2.09442
    D3       -2.09449   0.00004   0.00000   0.00010   0.00010  -2.09438
    D4        2.09449  -0.00004   0.00000  -0.00010  -0.00010   2.09438
    D5       -0.55070  -0.00015   0.00000  -0.00008  -0.00008  -0.55078
    D6        0.55079   0.00021   0.00000   0.00016   0.00016   0.55095
    D7       -0.55079  -0.00021   0.00000  -0.00016  -0.00016  -0.55095
         Item               Value     Threshold  Converged?
 Maximum Force            0.025015     0.000450     NO 
 RMS     Force            0.005568     0.000300     NO 
 Maximum Displacement     0.122066     0.001800     NO 
 RMS     Displacement     0.028108     0.001200     NO 
 Predicted change in Energy=-2.432245D-03
 GradGradGradGradGradGradGradGradGradGradGradGradGradGradGradGradGradGrad

                          Input orientation:                          
 ---------------------------------------------------------------------
 Center     Atomic      Atomic             Coordinates (Angstroms)
 Number     Number       Type             X           Y           Z
 ---------------------------------------------------------------------
      1          6           0        1.261507   -0.000645    0.000000
      2          1           0        0.997330    0.521885   -0.905232
      3          1           0        0.997331    0.521885    0.905233
      4          1           0        0.997979   -1.046037    0.000000
      5         35           0       -1.876230   -0.000141    0.000000
      6         17           0        3.176338    0.000004    0.000000
 ---------------------------------------------------------------------
                    Distance matrix (angstroms):
                    1          2          3          4          5
     1  C    0.000000
     2  H    1.078088   0.000000
     3  H    1.078087   1.810465   0.000000
     4  H    1.078096   1.810477   1.810476   0.000000
     5  Br   3.137737   3.057664   3.057664   3.058591   0.000000
     6  Cl   1.914832   2.416585   2.416584   2.416495   5.052568
                    6
     6  Cl   0.000000
 Stoichiometry    CH3BrCl(1-)
 Framework group  C1[X(CH3BrCl)]
 Deg. of freedom    12
 Full point group                 C1      NOp   1
 Largest Abelian subgroup         C1      NOp   1
 Largest concise Abelian subgroup C1      NOp   1
                         Standard orientation:                         
 ---------------------------------------------------------------------
 Center     Atomic      Atomic             Coordinates (Angstroms)
 Number     Number       Type             X           Y           Z
 ---------------------------------------------------------------------
      1          6           0        1.279681    0.000471    0.000006
      2          1           0        1.015507   -0.533244    0.898691
      3          1           0        1.015507   -0.510798   -0.911635
      4          1           0        1.016148    1.045781    0.012966
      5         35           0       -1.858056   -0.000048   -0.000001
      6         17           0        3.194512   -0.000169   -0.000002
 ---------------------------------------------------------------------
 Rotational constants (GHZ):         152.9845121           0.7755735           0.7755735
 Standard basis: CC-pVDZ (5D, 7F)
 There are    78 symmetry adapted cartesian basis functions of A   symmetry.
 There are    74 symmetry adapted basis functions of A   symmetry.
    74 basis functions,   272 primitive gaussians,    78 cartesian basis functions
    31 alpha electrons       31 beta electrons
       nuclear repulsion energy       164.9718454455 Hartrees.
 NAtoms=    6 NActive=    6 NUniq=    6 SFac= 1.00D+00 NAtFMM=   60 NAOKFM=F Big=F
 Integral buffers will be    131072 words long.
 Raffenetti 1 integral format.
 Two-electron integral symmetry is turned on.
 One-electron integrals computed using PRISM.
 NBasis=    74 RedAO= T EigKep=  1.82D-02  NBF=    74
 NBsUse=    74 1.00D-06 EigRej= -1.00D+00 NBFU=    74
 Initial guess from the checkpoint file:  "C:\Users\chemistry\Documents\Gruppe H\inputCCopti.chk"
 B after Tr=     0.000000    0.000000    0.000000
         Rot=    0.707092   -0.004384   -0.707086   -0.005541 Ang= -90.00 deg.
 ExpMin= 1.22D-01 ExpMax= 6.40D+05 ExpMxC= 6.18D+03 IAcc=3 IRadAn=         5 AccDes= 0.00D+00
 Harris functional with IExCor=  205 and IRadAn=       5 diagonalized for initial guess.
 HarFok:  IExCor=  205 AccDes= 0.00D+00 IRadAn=         5 IDoV= 1 UseB2=F ITyADJ=14
 ICtDFT=  3500011 ScaDFX=  1.000000  1.000000  1.000000  1.000000
 FoFCou: FMM=F IPFlag=           0 FMFlag=      100000 FMFlg1=           0
         NFxFlg=           0 DoJE=T BraDBF=F KetDBF=T FulRan=T
         wScrn=  0.000000 ICntrl=       500 IOpCl=  0 I1Cent=   200000004 NGrid=           0
         NMat0=    1 NMatS0=      1 NMatT0=    0 NMatD0=    1 NMtDS0=    0 NMtDT0=    0
 Petite list used in FoFCou.
 Keep R1 ints in memory in canonical form, NReq=4922942.
 Requested convergence on RMS density matrix=1.00D-08 within 128 cycles.
 Requested convergence on MAX density matrix=1.00D-06.
 Requested convergence on             energy=1.00D-06.
 No special actions if energy rises.
 SCF Done:  E(RHF) =  -3071.57215022     A.U. after    9 cycles
            NFock=  9  Conv=0.65D-08     -V/T= 2.0003
 Calling FoFJK, ICntrl=      2127 FMM=F ISym2X=0 I1Cent= 0 IOpClX= 0 NMat=1 NMatS=1 NMatT=0.
 ***** Axes restored to original set *****
 -------------------------------------------------------------------
 Center     Atomic                   Forces (Hartrees/Bohr)
 Number     Number              X              Y              Z
 -------------------------------------------------------------------
      1        6           0.024132228    0.000001826   -0.000000156
      2        1          -0.003510905   -0.000780832    0.001353069
      3        1          -0.003510984   -0.000780707   -0.001352883
      4        1          -0.003520980    0.001563073   -0.000000015
      5       35          -0.004697119   -0.000001849    0.000000000
      6       17          -0.008892241   -0.000001512   -0.000000015
 -------------------------------------------------------------------
 Cartesian Forces:  Max     0.024132228 RMS     0.006359042

 GradGradGradGradGradGradGradGradGradGradGradGradGradGradGradGradGradGrad
 Berny optimization.
 Using GEDIIS/GDIIS optimizer.
 FormGI is forming the generalized inverse of G from B-inverse, IUseBI=4.
 Internal  Forces:  Max     0.008892241 RMS     0.002356918
 Search for a local minimum.
 Step number   2 out of a maximum of   36
 All quantities printed in internal units (Hartrees-Bohrs-Radians)
 Mixed Optimization -- RFO/linear search
 Update second derivatives using D2CorX and points    1    2
 DE= -3.27D-03 DEPred=-2.43D-03 R= 1.35D+00
 TightC=F SS=  1.41D+00  RLast= 1.89D-01 DXNew= 5.0454D-01 5.6705D-01
 Trust test= 1.35D+00 RLast= 1.89D-01 DXMaxT set to 5.05D-01
 ITU=  1  0
 Use linear search instead of GDIIS.
     Eigenvalues ---    0.01221   0.01227   0.01468   0.04187   0.05926
     Eigenvalues ---    0.05937   0.10361   0.10650   0.13325   0.34898
     Eigenvalues ---    0.35303   0.39073
 RFO step:  Lambda=-2.17153704D-03 EMin= 1.22133506D-02
 Quartic linear search produced a step of  0.42109.
 Iteration  1 RMS(Cart)=  0.02461447 RMS(Int)=  0.00152522
 Iteration  2 RMS(Cart)=  0.00076069 RMS(Int)=  0.00127854
 Iteration  3 RMS(Cart)=  0.00000056 RMS(Int)=  0.00127854
 Variable       Old X    -DE/DX   Delta X   Delta X   Delta X     New X
                                 (Linear)    (Quad)   (Total)
    R1        2.03729  -0.00057   0.00878  -0.00021   0.00876   2.04605
    R2        2.03729  -0.00046   0.00877  -0.00021   0.00869   2.04598
    R3        2.03731  -0.00054   0.00879  -0.00018   0.00883   2.04613
    R4        5.92946   0.00428   0.02054   0.12899   0.15017   6.07963
    R5        3.61851  -0.00889  -0.06777  -0.08297  -0.15074   3.46776
    R6        5.77815   0.00015   0.01909   0.02888   0.04764   5.82579
    R7        5.77815   0.00014   0.01909   0.02887   0.04763   5.82577
    R8        5.77990   0.00000   0.01883   0.02842   0.04705   5.82695
    A1        1.99333  -0.00085  -0.00040  -0.03386  -0.03773   1.95560
    A2        1.99334  -0.00181  -0.00049  -0.03651  -0.03961   1.95373
    A3        1.81819   0.00181   0.00061   0.04559   0.04649   1.86468
    A4        1.99334  -0.00182  -0.00049  -0.03651  -0.03960   1.95374
    A5        1.81819   0.00182   0.00061   0.04559   0.04649   1.86467
    A6        1.81808   0.00210   0.00055   0.04570   0.04628   1.86436
    A7        0.60112  -0.00034   0.00055  -0.00995  -0.01007   0.59104
    A8        0.60103  -0.00054   0.00054  -0.01045  -0.01040   0.59062
    A9        0.60103  -0.00052   0.00054  -0.01045  -0.01041   0.59061
   A10        3.14134  -0.00007   0.00006   0.00004   0.00017   3.14152
   A11        3.14115  -0.00013   0.00012   0.00006   0.00029   3.14144
    D1       -2.33941   0.00514   0.00166   0.12906   0.12692  -2.21250
    D2        2.09442   0.00064   0.00009   0.00195   0.00154   2.09596
    D3       -2.09438   0.00032   0.00004   0.00098   0.00077  -2.09361
    D4        2.09438  -0.00032  -0.00004  -0.00098  -0.00077   2.09361
    D5       -0.55078   0.00039  -0.00003   0.00199   0.00171  -0.54908
    D6        0.55095   0.00014   0.00007  -0.00045  -0.00058   0.55037
    D7       -0.55095  -0.00013  -0.00007   0.00045   0.00057  -0.55038
         Item               Value     Threshold  Converged?
 Maximum Force            0.008892     0.000450     NO 
 RMS     Force            0.002357     0.000300     NO 
 Maximum Displacement     0.096982     0.001800     NO 
 RMS     Displacement     0.024820     0.001200     NO 
 Predicted change in Energy=-1.761455D-03
 GradGradGradGradGradGradGradGradGradGradGradGradGradGradGradGradGradGrad

                          Input orientation:                          
 ---------------------------------------------------------------------
 Center     Atomic      Atomic             Coordinates (Angstroms)
 Number     Number       Type             X           Y           Z
 ---------------------------------------------------------------------
      1          6           0        1.312827   -0.000286    0.000003
      2          1           0        0.999130    0.517120   -0.897867
      3          1           0        0.999136    0.517105    0.897842
      4          1           0        0.999650   -1.036772    0.000001
      5         35           0       -1.904376   -0.000174    0.000009
      6         17           0        3.147889   -0.000042    0.000014
 ---------------------------------------------------------------------
                    Distance matrix (angstroms):
                    1          2          3          4          5
     1  C    0.000000
     2  H    1.082721   0.000000
     3  H    1.082687   1.795709   0.000000
     4  H    1.082767   1.794644   1.794618   0.000000
     5  Br   3.217203   3.082875   3.082866   3.083489   0.000000
     6  Cl   1.835061   2.385542   2.385514   2.385318   5.052265
                    6
     6  Cl   0.000000
 Stoichiometry    CH3BrCl(1-)
 Framework group  C1[X(CH3BrCl)]
 Deg. of freedom    12
 Full point group                 C1      NOp   1
 Largest Abelian subgroup         C1      NOp   1
 Largest concise Abelian subgroup C1      NOp   1
                         Standard orientation:                         
 ---------------------------------------------------------------------
 Center     Atomic      Atomic             Coordinates (Angstroms)
 Number     Number       Type             X           Y           Z
 ---------------------------------------------------------------------
      1          6           0        1.349945   -0.000005    0.000120
      2          1           0        1.036253   -0.903280   -0.507794
      3          1           0        1.036260    0.892329   -0.526711
      4          1           0        1.036755    0.010921    1.036546
      5         35           0       -1.867258    0.000001   -0.000029
      6         17           0        3.185006    0.000002   -0.000102
 ---------------------------------------------------------------------
 Rotational constants (GHZ):         155.6351209           0.7721823           0.7721792
 Standard basis: CC-pVDZ (5D, 7F)
 There are    78 symmetry adapted cartesian basis functions of A   symmetry.
 There are    74 symmetry adapted basis functions of A   symmetry.
    74 basis functions,   272 primitive gaussians,    78 cartesian basis functions
    31 alpha electrons       31 beta electrons
       nuclear repulsion energy       165.2935261958 Hartrees.
 NAtoms=    6 NActive=    6 NUniq=    6 SFac= 1.00D+00 NAtFMM=   60 NAOKFM=F Big=F
 Integral buffers will be    131072 words long.
 Raffenetti 1 integral format.
 Two-electron integral symmetry is turned on.
 One-electron integrals computed using PRISM.
 NBasis=    74 RedAO= T EigKep=  1.65D-02  NBF=    74
 NBsUse=    74 1.00D-06 EigRej= -1.00D+00 NBFU=    74
 Initial guess from the checkpoint file:  "C:\Users\chemistry\Documents\Gruppe H\inputCCopti.chk"
 B after Tr=     0.000000    0.000000    0.000000
         Rot=    0.715171   -0.698949    0.000000    0.000000 Ang= -88.69 deg.
 ExpMin= 1.22D-01 ExpMax= 6.40D+05 ExpMxC= 6.18D+03 IAcc=3 IRadAn=         5 AccDes= 0.00D+00
 Harris functional with IExCor=  205 and IRadAn=       5 diagonalized for initial guess.
 HarFok:  IExCor=  205 AccDes= 0.00D+00 IRadAn=         5 IDoV= 1 UseB2=F ITyADJ=14
 ICtDFT=  3500011 ScaDFX=  1.000000  1.000000  1.000000  1.000000
 FoFCou: FMM=F IPFlag=           0 FMFlag=      100000 FMFlg1=           0
         NFxFlg=           0 DoJE=T BraDBF=F KetDBF=T FulRan=T
         wScrn=  0.000000 ICntrl=       500 IOpCl=  0 I1Cent=   200000004 NGrid=           0
         NMat0=    1 NMatS0=      1 NMatT0=    0 NMatD0=    1 NMtDS0=    0 NMtDT0=    0
 Petite list used in FoFCou.
 Keep R1 ints in memory in canonical form, NReq=4922944.
 Requested convergence on RMS density matrix=1.00D-08 within 128 cycles.
 Requested convergence on MAX density matrix=1.00D-06.
 Requested convergence on             energy=1.00D-06.
 No special actions if energy rises.
 SCF Done:  E(RHF) =  -3071.57400643     A.U. after    9 cycles
            NFock=  9  Conv=0.79D-08     -V/T= 2.0003
 Calling FoFJK, ICntrl=      2127 FMM=F ISym2X=0 I1Cent= 0 IOpClX= 0 NMat=1 NMatS=1 NMatT=0.
 ***** Axes restored to original set *****
 -------------------------------------------------------------------
 Center     Atomic                   Forces (Hartrees/Bohr)
 Number     Number              X              Y              Z
 -------------------------------------------------------------------
      1        6           0.002591768   -0.000216532   -0.000020782
      2        1          -0.001198867   -0.001399673    0.002650012
      3        1          -0.001206736   -0.001387170   -0.002628853
      4        1          -0.001178936    0.002987689   -0.000000263
      5       35          -0.004509796   -0.000002139    0.000000042
      6       17           0.005502567    0.000017825   -0.000000156
 -------------------------------------------------------------------
 Cartesian Forces:  Max     0.005502567 RMS     0.002216201

 GradGradGradGradGradGradGradGradGradGradGradGradGradGradGradGradGradGrad
 Berny optimization.
 Using GEDIIS/GDIIS optimizer.
 FormGI is forming the generalized inverse of G from B-inverse, IUseBI=4.
 Internal  Forces:  Max     0.005502569 RMS     0.001716355
 Search for a local minimum.
 Step number   3 out of a maximum of   36
 All quantities printed in internal units (Hartrees-Bohrs-Radians)
 Mixed Optimization -- RFO/linear search
 Update second derivatives using D2CorX and points    1    2    3
 DE= -1.86D-03 DEPred=-1.76D-03 R= 1.05D+00
 TightC=F SS=  1.41D+00  RLast= 2.82D-01 DXNew= 8.4853D-01 8.4702D-01
 Trust test= 1.05D+00 RLast= 2.82D-01 DXMaxT set to 8.47D-01
 ITU=  1  1  0
 Use linear search instead of GDIIS.
     Eigenvalues ---    0.01213   0.01224   0.01356   0.03936   0.05507
     Eigenvalues ---    0.05540   0.10364   0.10691   0.19936   0.34898
     Eigenvalues ---    0.35347   0.41846
 RFO step:  Lambda=-5.44480707D-04 EMin= 1.21322021D-02
 Quartic linear search produced a step of  0.09821.
 Iteration  1 RMS(Cart)=  0.01493648 RMS(Int)=  0.00030209
 Iteration  2 RMS(Cart)=  0.00010378 RMS(Int)=  0.00028012
 Iteration  3 RMS(Cart)=  0.00000001 RMS(Int)=  0.00028012
 Variable       Old X    -DE/DX   Delta X   Delta X   Delta X     New X
                                 (Linear)    (Quad)   (Total)
    R1        2.04605  -0.00230   0.00086  -0.00072   0.00017   2.04621
    R2        2.04598  -0.00220   0.00085  -0.00065   0.00021   2.04619
    R3        2.04613  -0.00226   0.00087  -0.00071   0.00018   2.04631
    R4        6.07963   0.00317   0.01475   0.07777   0.09259   6.17222
    R5        3.46776   0.00550  -0.01480   0.01146  -0.00335   3.46442
    R6        5.82579   0.00041   0.00468   0.04852   0.05316   5.87895
    R7        5.82577   0.00041   0.00468   0.04866   0.05330   5.87907
    R8        5.82695   0.00030   0.00462   0.04796   0.05257   5.87952
    A1        1.95560  -0.00073  -0.00371  -0.01091  -0.01538   1.94022
    A2        1.95373  -0.00128  -0.00389  -0.01089  -0.01535   1.93838
    A3        1.86468   0.00115   0.00457   0.01201   0.01666   1.88134
    A4        1.95374  -0.00129  -0.00389  -0.01088  -0.01535   1.93839
    A5        1.86467   0.00116   0.00457   0.01202   0.01666   1.88134
    A6        1.86436   0.00137   0.00455   0.01242   0.01698   1.88134
    A7        0.59104  -0.00086  -0.00099  -0.00752  -0.00860   0.58245
    A8        0.59062  -0.00098  -0.00102  -0.00749  -0.00856   0.58206
    A9        0.59061  -0.00096  -0.00102  -0.00748  -0.00856   0.58206
   A10        3.14152  -0.00006   0.00002  -0.00007  -0.00003   3.14148
   A11        3.14144  -0.00010   0.00003  -0.00004   0.00002   3.14146
    D1       -2.21250   0.00305   0.01246   0.03217   0.04379  -2.16871
    D2        2.09596   0.00036   0.00015  -0.00014  -0.00011   2.09585
    D3       -2.09361   0.00018   0.00008  -0.00007  -0.00005  -2.09366
    D4        2.09361  -0.00018  -0.00008   0.00007   0.00006   2.09367
    D5       -0.54908   0.00029   0.00017   0.00064   0.00073  -0.54834
    D6        0.55037   0.00003  -0.00006  -0.00073  -0.00082   0.54955
    D7       -0.55038  -0.00001   0.00006   0.00072   0.00081  -0.54957
         Item               Value     Threshold  Converged?
 Maximum Force            0.005503     0.000450     NO 
 RMS     Force            0.001716     0.000300     NO 
 Maximum Displacement     0.060198     0.001800     NO 
 RMS     Displacement     0.014961     0.001200     NO 
 Predicted change in Energy=-3.219586D-04
 GradGradGradGradGradGradGradGradGradGradGradGradGradGradGradGradGradGrad

                          Input orientation:                          
 ---------------------------------------------------------------------
 Center     Atomic      Atomic             Coordinates (Angstroms)
 Number     Number       Type             X           Y           Z
 ---------------------------------------------------------------------
      1          6           0        1.329969   -0.000310    0.000012
      2          1           0        0.998992    0.514496   -0.893244
      3          1           0        0.999034    0.514492    0.893270
      4          1           0        0.999233   -1.031428    0.000016
      5         35           0       -1.936232   -0.000271   -0.000029
      6         17           0        3.163260   -0.000027   -0.000024
 ---------------------------------------------------------------------
                    Distance matrix (angstroms):
                    1          2          3          4          5
     1  C    0.000000
     2  H    1.082810   0.000000
     3  H    1.082797   1.786514   0.000000
     4  H    1.082863   1.785440   1.785433   0.000000
     5  Br   3.266201   3.111005   3.111068   3.111308   0.000000
     6  Cl   1.833291   2.397213   2.397202   2.397248   5.099491
                    6
     6  Cl   0.000000
 Stoichiometry    CH3BrCl(1-)
 Framework group  C1[X(CH3BrCl)]
 Deg. of freedom    12
 Full point group                 C1      NOp   1
 Largest Abelian subgroup         C1      NOp   1
 Largest concise Abelian subgroup C1      NOp   1
                         Standard orientation:                         
 ---------------------------------------------------------------------
 Center     Atomic      Atomic             Coordinates (Angstroms)
 Number     Number       Type             X           Y           Z
 ---------------------------------------------------------------------
      1          6           0        1.379405    0.000030    0.000125
      2          1           0        1.048444   -0.894517   -0.512444
      3          1           0        1.048491    0.891991   -0.516934
      4          1           0        1.048633    0.002628    1.031228
      5         35           0       -1.886795   -0.000003   -0.000029
      6         17           0        3.212696   -0.000011   -0.000093
 ---------------------------------------------------------------------
 Rotational constants (GHZ):         157.2419194           0.7571888           0.7571858
 Standard basis: CC-pVDZ (5D, 7F)
 There are    78 symmetry adapted cartesian basis functions of A   symmetry.
 There are    74 symmetry adapted basis functions of A   symmetry.
    74 basis functions,   272 primitive gaussians,    78 cartesian basis functions
    31 alpha electrons       31 beta electrons
       nuclear repulsion energy       164.0123601448 Hartrees.
 NAtoms=    6 NActive=    6 NUniq=    6 SFac= 1.00D+00 NAtFMM=   60 NAOKFM=F Big=F
 Integral buffers will be    131072 words long.
 Raffenetti 1 integral format.
 Two-electron integral symmetry is turned on.
 One-electron integrals computed using PRISM.
 NBasis=    74 RedAO= T EigKep=  1.67D-02  NBF=    74
 NBsUse=    74 1.00D-06 EigRej= -1.00D+00 NBFU=    74
 Initial guess from the checkpoint file:  "C:\Users\chemistry\Documents\Gruppe H\inputCCopti.chk"
 B after Tr=     0.000000    0.000000    0.000000
         Rot=    0.999992   -0.004014    0.000001    0.000000 Ang=  -0.46 deg.
 ExpMin= 1.22D-01 ExpMax= 6.40D+05 ExpMxC= 6.18D+03 IAcc=3 IRadAn=         5 AccDes= 0.00D+00
 Harris functional with IExCor=  205 and IRadAn=       5 diagonalized for initial guess.
 HarFok:  IExCor=  205 AccDes= 0.00D+00 IRadAn=         5 IDoV= 1 UseB2=F ITyADJ=14
 ICtDFT=  3500011 ScaDFX=  1.000000  1.000000  1.000000  1.000000
 FoFCou: FMM=F IPFlag=           0 FMFlag=      100000 FMFlg1=           0
         NFxFlg=           0 DoJE=T BraDBF=F KetDBF=T FulRan=T
         wScrn=  0.000000 ICntrl=       500 IOpCl=  0 I1Cent=   200000004 NGrid=           0
         NMat0=    1 NMatS0=      1 NMatT0=    0 NMatD0=    1 NMtDS0=    0 NMtDT0=    0
 Petite list used in FoFCou.
 Keep R1 ints in memory in canonical form, NReq=4922832.
 Requested convergence on RMS density matrix=1.00D-08 within 128 cycles.
 Requested convergence on MAX density matrix=1.00D-06.
 Requested convergence on             energy=1.00D-06.
 No special actions if energy rises.
 SCF Done:  E(RHF) =  -3071.57445310     A.U. after    9 cycles
            NFock=  9  Conv=0.24D-08     -V/T= 2.0003
 Calling FoFJK, ICntrl=      2127 FMM=F ISym2X=0 I1Cent= 0 IOpClX= 0 NMat=1 NMatS=1 NMatT=0.
 ***** Axes restored to original set *****
 -------------------------------------------------------------------
 Center     Atomic                   Forces (Hartrees/Bohr)
 Number     Number              X              Y              Z
 -------------------------------------------------------------------
      1        6          -0.001257056   -0.000186212   -0.000008758
      2        1           0.000695272   -0.000799676    0.001608594
      3        1           0.000691870   -0.000794928   -0.001600138
      4        1           0.000743778    0.001782004    0.000000110
      5       35          -0.003377351   -0.000002268    0.000000085
      6       17           0.002503487    0.000001080    0.000000107
 -------------------------------------------------------------------
 Cartesian Forces:  Max     0.003377351 RMS     0.001299554

 GradGradGradGradGradGradGradGradGradGradGradGradGradGradGradGradGradGrad
 Berny optimization.
 Using GEDIIS/GDIIS optimizer.
 FormGI is forming the generalized inverse of G from B-inverse, IUseBI=4.
 Internal  Forces:  Max     0.002503487 RMS     0.000890511
 Search for a local minimum.
 Step number   4 out of a maximum of   36
 All quantities printed in internal units (Hartrees-Bohrs-Radians)
 Mixed Optimization -- En-DIIS/RFO-DIIS
 Update second derivatives using D2CorX and points    1    2    3    4
 DE= -4.47D-04 DEPred=-3.22D-04 R= 1.39D+00
 TightC=F SS=  1.41D+00  RLast= 1.44D-01 DXNew= 1.4245D+00 4.3168D-01
 Trust test= 1.39D+00 RLast= 1.44D-01 DXMaxT set to 8.47D-01
 ITU=  1  1  1  0
 Use linear search instead of GDIIS.
     Eigenvalues ---    0.00715   0.01208   0.01222   0.04778   0.05351
     Eigenvalues ---    0.06176   0.10367   0.10702   0.17106   0.34880
     Eigenvalues ---    0.35358   0.38270
 RFO step:  Lambda=-1.96018504D-04 EMin= 7.14817662D-03
 Quartic linear search produced a step of  0.92774.
 Iteration  1 RMS(Cart)=  0.02273076 RMS(Int)=  0.00023152
 Iteration  2 RMS(Cart)=  0.00006621 RMS(Int)=  0.00022046
 Iteration  3 RMS(Cart)=  0.00000001 RMS(Int)=  0.00022046
 Variable       Old X    -DE/DX   Delta X   Delta X   Delta X     New X
                                 (Linear)    (Quad)   (Total)
    R1        2.04621  -0.00177   0.00016  -0.00362  -0.00350   2.04271
    R2        2.04619  -0.00174   0.00019  -0.00361  -0.00349   2.04270
    R3        2.04631  -0.00174   0.00017  -0.00366  -0.00355   2.04276
    R4        6.17222   0.00133   0.08590   0.05052   0.13634   6.30856
    R5        3.46442   0.00250  -0.00310  -0.00070  -0.00380   3.46062
    R6        5.87895   0.00066   0.04932   0.05755   0.10691   5.98585
    R7        5.87907   0.00066   0.04944   0.05757   0.10705   5.98612
    R8        5.87952   0.00065   0.04877   0.05710   0.10594   5.98546
    A1        1.94022  -0.00022  -0.01427   0.00331  -0.01154   1.92868
    A2        1.93838  -0.00027  -0.01424   0.00510  -0.00962   1.92876
    A3        1.88134   0.00026   0.01545  -0.00474   0.01081   1.89215
    A4        1.93839  -0.00027  -0.01424   0.00509  -0.00962   1.92877
    A5        1.88134   0.00026   0.01546  -0.00475   0.01080   1.89214
    A6        1.88134   0.00028   0.01575  -0.00494   0.01085   1.89219
    A7        0.58245  -0.00063  -0.00798  -0.00625  -0.01404   0.56841
    A8        0.58206  -0.00064  -0.00794  -0.00586  -0.01360   0.56847
    A9        0.58206  -0.00063  -0.00794  -0.00586  -0.01360   0.56845
   A10        3.14148   0.00000  -0.00003   0.00014   0.00012   3.14160
   A11        3.14146  -0.00001   0.00002   0.00026   0.00030   3.14176
    D1       -2.16871   0.00068   0.04062  -0.01171   0.02836  -2.14035
    D2        2.09585   0.00003  -0.00010  -0.00135  -0.00154   2.09431
    D3       -2.09366   0.00002  -0.00005  -0.00068  -0.00077  -2.09443
    D4        2.09367  -0.00002   0.00005   0.00067   0.00077   2.09444
    D5       -0.54834   0.00007   0.00068  -0.00023   0.00036  -0.54799
    D6        0.54955  -0.00004  -0.00076  -0.00094  -0.00170   0.54785
    D7       -0.54957   0.00005   0.00075   0.00094   0.00168  -0.54789
         Item               Value     Threshold  Converged?
 Maximum Force            0.002503     0.000450     NO 
 RMS     Force            0.000891     0.000300     NO 
 Maximum Displacement     0.103012     0.001800     NO 
 RMS     Displacement     0.022745     0.001200     NO 
 Predicted change in Energy=-2.340727D-04
 GradGradGradGradGradGradGradGradGradGradGradGradGradGradGradGradGradGrad

                          Input orientation:                          
 ---------------------------------------------------------------------
 Center     Atomic      Atomic             Coordinates (Angstroms)
 Number     Number       Type             X           Y           Z
 ---------------------------------------------------------------------
      1          6           0        1.347604   -0.000459    0.000021
      2          1           0        1.006168    0.512403   -0.888157
      3          1           0        1.006256    0.512403    0.888225
      4          1           0        1.006086   -1.026074    0.000034
      5         35           0       -1.990743   -0.000783   -0.000067
      6         17           0        3.178884   -0.000539   -0.000056
 ---------------------------------------------------------------------
                    Distance matrix (angstroms):
                    1          2          3          4          5
     1  C    0.000000
     2  H    1.080956   0.000000
     3  H    1.080950   1.776382   0.000000
     4  H    1.080982   1.776456   1.776456   0.000000
     5  Br   3.338348   3.167577   3.167716   3.167367   0.000000
     6  Cl   1.831279   2.402608   2.402595   2.402659   5.169627
                    6
     6  Cl   0.000000
 Stoichiometry    CH3BrCl(1-)
 Framework group  C1[X(CH3BrCl)]
 Deg. of freedom    12
 Full point group                 C1      NOp   1
 Largest Abelian subgroup         C1      NOp   1
 Largest concise Abelian subgroup C1      NOp   1
                         Standard orientation:                         
 ---------------------------------------------------------------------
 Center     Atomic      Atomic             Coordinates (Angstroms)
 Number     Number       Type             X           Y           Z
 ---------------------------------------------------------------------
      1          6           0        1.421881   -0.000129   -0.000063
      2          1           0        1.080468   -0.511716    0.888858
      3          1           0        1.080565   -0.514302   -0.887522
      4          1           0        1.080307    1.025466   -0.001571
      5         35           0       -1.916467    0.000013    0.000006
      6         17           0        3.253160    0.000051    0.000023
 ---------------------------------------------------------------------
 Rotational constants (GHZ):         158.9041692           0.7356002           0.7356000
 Standard basis: CC-pVDZ (5D, 7F)
 There are    78 symmetry adapted cartesian basis functions of A   symmetry.
 There are    74 symmetry adapted basis functions of A   symmetry.
    74 basis functions,   272 primitive gaussians,    78 cartesian basis functions
    31 alpha electrons       31 beta electrons
       nuclear repulsion energy       162.1481098264 Hartrees.
 NAtoms=    6 NActive=    6 NUniq=    6 SFac= 1.00D+00 NAtFMM=   60 NAOKFM=F Big=F
 Integral buffers will be    131072 words long.
 Raffenetti 1 integral format.
 Two-electron integral symmetry is turned on.
 One-electron integrals computed using PRISM.
 NBasis=    74 RedAO= T EigKep=  1.69D-02  NBF=    74
 NBsUse=    74 1.00D-06 EigRej= -1.00D+00 NBFU=    74
 Initial guess from the checkpoint file:  "C:\Users\chemistry\Documents\Gruppe H\inputCCopti.chk"
 B after Tr=     0.000000    0.000000    0.000000
         Rot=    0.707481    0.706732    0.000001   -0.000001 Ang=  89.94 deg.
 ExpMin= 1.22D-01 ExpMax= 6.40D+05 ExpMxC= 6.18D+03 IAcc=3 IRadAn=         5 AccDes= 0.00D+00
 Harris functional with IExCor=  205 and IRadAn=       5 diagonalized for initial guess.
 HarFok:  IExCor=  205 AccDes= 0.00D+00 IRadAn=         5 IDoV= 1 UseB2=F ITyADJ=14
 ICtDFT=  3500011 ScaDFX=  1.000000  1.000000  1.000000  1.000000
 FoFCou: FMM=F IPFlag=           0 FMFlag=      100000 FMFlg1=           0
         NFxFlg=           0 DoJE=T BraDBF=F KetDBF=T FulRan=T
         wScrn=  0.000000 ICntrl=       500 IOpCl=  0 I1Cent=   200000004 NGrid=           0
         NMat0=    1 NMatS0=      1 NMatT0=    0 NMatD0=    1 NMtDS0=    0 NMtDT0=    0
 Petite list used in FoFCou.
 Keep R1 ints in memory in canonical form, NReq=4922555.
 Requested convergence on RMS density matrix=1.00D-08 within 128 cycles.
 Requested convergence on MAX density matrix=1.00D-06.
 Requested convergence on             energy=1.00D-06.
 No special actions if energy rises.
 SCF Done:  E(RHF) =  -3071.57475492     A.U. after    9 cycles
            NFock=  9  Conv=0.27D-08     -V/T= 2.0003
 Calling FoFJK, ICntrl=      2127 FMM=F ISym2X=0 I1Cent= 0 IOpClX= 0 NMat=1 NMatS=1 NMatT=0.
 ***** Axes restored to original set *****
 -------------------------------------------------------------------
 Center     Atomic                   Forces (Hartrees/Bohr)
 Number     Number              X              Y              Z
 -------------------------------------------------------------------
      1        6          -0.002659204   -0.000010930   -0.000004218
      2        1           0.001364046    0.000259309   -0.000461606
      3        1           0.001361774    0.000261656    0.000465678
      4        1           0.001371184   -0.000508938    0.000000002
      5       35          -0.001805765    0.000000335    0.000000145
      6       17           0.000367966   -0.000001432   -0.000000001
 -------------------------------------------------------------------
 Cartesian Forces:  Max     0.002659204 RMS     0.000968606

 GradGradGradGradGradGradGradGradGradGradGradGradGradGradGradGradGradGrad
 Berny optimization.
 Using GEDIIS/GDIIS optimizer.
 FormGI is forming the generalized inverse of G from B-inverse, IUseBI=4.
 Internal  Forces:  Max     0.000944302 RMS     0.000367464
 Search for a local minimum.
 Step number   5 out of a maximum of   36
 All quantities printed in internal units (Hartrees-Bohrs-Radians)
 Mixed Optimization -- En-DIIS/RFO-DIIS
 Swapping is turned off.
 Update second derivatives using D2CorX and points    3    4    5
 DE= -3.02D-04 DEPred=-2.34D-04 R= 1.29D+00
 TightC=F SS=  1.41D+00  RLast= 2.34D-01 DXNew= 1.4245D+00 7.0229D-01
 Trust test= 1.29D+00 RLast= 2.34D-01 DXMaxT set to 8.47D-01
 ITU=  1  1  1  1  0
     Eigenvalues ---    0.00429   0.01202   0.01218   0.04862   0.05246
     Eigenvalues ---    0.06809   0.10334   0.10703   0.19068   0.34880
     Eigenvalues ---    0.35360   0.39868
 En-DIIS/RFO-DIIS/Sim-DIIS IScMMF=       -3 using points:     5    4
 RFO step:  Lambda=-1.66049735D-04.
 DidBck=F Rises=F RFO-DIIS coefs:    1.73683   -0.73683
 Iteration  1 RMS(Cart)=  0.01645725 RMS(Int)=  0.00011049
 Iteration  2 RMS(Cart)=  0.00001352 RMS(Int)=  0.00010953
 Iteration  3 RMS(Cart)=  0.00000000 RMS(Int)=  0.00010953
 Variable       Old X    -DE/DX   Delta X   Delta X   Delta X     New X
                                 (Linear)    (Quad)   (Total)
    R1        2.04271   0.00007  -0.00258   0.00196  -0.00068   2.04203
    R2        2.04270   0.00005  -0.00257   0.00198  -0.00067   2.04203
    R3        2.04276   0.00005  -0.00262   0.00190  -0.00080   2.04196
    R4        6.30856  -0.00015   0.10046  -0.01003   0.09033   6.39890
    R5        3.46062   0.00037  -0.00280   0.00594   0.00314   3.46376
    R6        5.98585   0.00068   0.07877   0.00814   0.08697   6.07283
    R7        5.98612   0.00068   0.07888   0.00792   0.08686   6.07297
    R8        5.98546   0.00072   0.07806   0.00886   0.08698   6.07244
    A1        1.92868   0.00025  -0.00850   0.00859  -0.00006   1.92863
    A2        1.92876   0.00046  -0.00709   0.00824   0.00102   1.92978
    A3        1.89215  -0.00038   0.00797  -0.00868  -0.00067   1.89148
    A4        1.92877   0.00046  -0.00709   0.00824   0.00102   1.92979
    A5        1.89214  -0.00038   0.00796  -0.00867  -0.00067   1.89147
    A6        1.89219  -0.00046   0.00800  -0.00876  -0.00073   1.89147
    A7        0.56841   0.00000  -0.01034   0.00152  -0.00856   0.55985
    A8        0.56847   0.00004  -0.01002   0.00139  -0.00837   0.56010
    A9        0.56845   0.00004  -0.01002   0.00141  -0.00836   0.56009
   A10        3.14160   0.00002   0.00009  -0.00005   0.00004   3.14164
   A11        3.14176   0.00004   0.00022  -0.00023   0.00000   3.14176
    D1       -2.14035  -0.00094   0.02090  -0.02215  -0.00132  -2.14167
    D2        2.09431  -0.00014  -0.00113   0.00031  -0.00084   2.09347
    D3       -2.09443  -0.00007  -0.00057   0.00016  -0.00042  -2.09485
    D4        2.09444   0.00007   0.00057  -0.00016   0.00042   2.09486
    D5       -0.54799  -0.00008   0.00026   0.00009   0.00031  -0.54768
    D6        0.54785  -0.00004  -0.00125   0.00025  -0.00097   0.54688
    D7       -0.54789   0.00004   0.00124  -0.00021   0.00099  -0.54690
         Item               Value     Threshold  Converged?
 Maximum Force            0.000944     0.000450     NO 
 RMS     Force            0.000367     0.000300     NO 
 Maximum Displacement     0.076580     0.001800     NO 
 RMS     Displacement     0.016459     0.001200     NO 
 Predicted change in Energy=-8.566820D-05
 GradGradGradGradGradGradGradGradGradGradGradGradGradGradGradGradGradGrad

                          Input orientation:                          
 ---------------------------------------------------------------------
 Center     Atomic      Atomic             Coordinates (Angstroms)
 Number     Number       Type             X           Y           Z
 ---------------------------------------------------------------------
      1          6           0        1.354882   -0.000588    0.000010
      2          1           0        1.014273    0.512595   -0.887860
      3          1           0        1.014323    0.512598    0.887898
      4          1           0        1.014221   -1.026042    0.000016
      5         35           0       -2.031268   -0.000907   -0.000036
      6         17           0        3.187823   -0.000706   -0.000027
 ---------------------------------------------------------------------
                    Distance matrix (angstroms):
                    1          2          3          4          5
     1  C    0.000000
     2  H    1.080594   0.000000
     3  H    1.080594   1.775757   0.000000
     4  H    1.080558   1.776437   1.776442   0.000000
     5  Br   3.386150   3.213601   3.213679   3.213395   0.000000
     6  Cl   1.832941   2.403340   2.403330   2.403302   5.219091
                    6
     6  Cl   0.000000
 Stoichiometry    CH3BrCl(1-)
 Framework group  C1[X(CH3BrCl)]
 Deg. of freedom    12
 Full point group                 C1      NOp   1
 Largest Abelian subgroup         C1      NOp   1
 Largest concise Abelian subgroup C1      NOp   1
                         Standard orientation:                         
 ---------------------------------------------------------------------
 Center     Atomic      Atomic             Coordinates (Angstroms)
 Number     Number       Type             X           Y           Z
 ---------------------------------------------------------------------
      1          6           0        1.448805   -0.000130   -0.000031
      2          1           0        1.108218   -0.510144    0.889671
      3          1           0        1.108273   -0.516511   -0.886075
      4          1           0        1.108093    1.025301   -0.003713
      5         35           0       -1.937345    0.000023    0.000003
      6         17           0        3.281746    0.000078    0.000012
 ---------------------------------------------------------------------
 Rotational constants (GHZ):         158.9433296           0.7209844           0.7209827
 Standard basis: CC-pVDZ (5D, 7F)
 There are    78 symmetry adapted cartesian basis functions of A   symmetry.
 There are    74 symmetry adapted basis functions of A   symmetry.
    74 basis functions,   272 primitive gaussians,    78 cartesian basis functions
    31 alpha electrons       31 beta electrons
       nuclear repulsion energy       160.8230243487 Hartrees.
 NAtoms=    6 NActive=    6 NUniq=    6 SFac= 1.00D+00 NAtFMM=   60 NAOKFM=F Big=F
 Integral buffers will be    131072 words long.
 Raffenetti 1 integral format.
 Two-electron integral symmetry is turned on.
 One-electron integrals computed using PRISM.
 NBasis=    74 RedAO= T EigKep=  1.70D-02  NBF=    74
 NBsUse=    74 1.00D-06 EigRej= -1.00D+00 NBFU=    74
 Initial guess from the checkpoint file:  "C:\Users\chemistry\Documents\Gruppe H\inputCCopti.chk"
 B after Tr=     0.000000    0.000000    0.000000
         Rot=    0.999999    0.001064    0.000000    0.000000 Ang=   0.12 deg.
 ExpMin= 1.22D-01 ExpMax= 6.40D+05 ExpMxC= 6.18D+03 IAcc=3 IRadAn=         5 AccDes= 0.00D+00
 Harris functional with IExCor=  205 and IRadAn=       5 diagonalized for initial guess.
 HarFok:  IExCor=  205 AccDes= 0.00D+00 IRadAn=         5 IDoV= 1 UseB2=F ITyADJ=14
 ICtDFT=  3500011 ScaDFX=  1.000000  1.000000  1.000000  1.000000
 FoFCou: FMM=F IPFlag=           0 FMFlag=      100000 FMFlg1=           0
         NFxFlg=           0 DoJE=T BraDBF=F KetDBF=T FulRan=T
         wScrn=  0.000000 ICntrl=       500 IOpCl=  0 I1Cent=   200000004 NGrid=           0
         NMat0=    1 NMatS0=      1 NMatT0=    0 NMatD0=    1 NMtDS0=    0 NMtDT0=    0
 Petite list used in FoFCou.
 Keep R1 ints in memory in canonical form, NReq=4922430.
 Requested convergence on RMS density matrix=1.00D-08 within 128 cycles.
 Requested convergence on MAX density matrix=1.00D-06.
 Requested convergence on             energy=1.00D-06.
 No special actions if energy rises.
 SCF Done:  E(RHF) =  -3071.57487864     A.U. after    8 cycles
            NFock=  8  Conv=0.49D-08     -V/T= 2.0003
 Calling FoFJK, ICntrl=      2127 FMM=F ISym2X=0 I1Cent= 0 IOpClX= 0 NMat=1 NMatS=1 NMatT=0.
 ***** Axes restored to original set *****
 -------------------------------------------------------------------
 Center     Atomic                   Forces (Hartrees/Bohr)
 Number     Number              X              Y              Z
 -------------------------------------------------------------------
      1        6          -0.001804571    0.000113841    0.000000272
      2        1           0.001159042    0.000383642   -0.000805052
      3        1           0.001158033    0.000383148    0.000804779
      4        1           0.001124961   -0.000882612    0.000000292
      5       35          -0.000855314    0.000001397    0.000000058
      6       17          -0.000782150    0.000000584   -0.000000349
 -------------------------------------------------------------------
 Cartesian Forces:  Max     0.001804571 RMS     0.000779297

 GradGradGradGradGradGradGradGradGradGradGradGradGradGradGradGradGradGrad
 Berny optimization.
 Using GEDIIS/GDIIS optimizer.
 FormGI is forming the generalized inverse of G from B-inverse, IUseBI=4.
 Internal  Forces:  Max     0.001092377 RMS     0.000423063
 Search for a local minimum.
 Step number   6 out of a maximum of   36
 All quantities printed in internal units (Hartrees-Bohrs-Radians)
 Mixed Optimization -- En-DIIS/RFO-DIIS
 Swapping is turned off.
 Update second derivatives using D2CorX and points    3    4    5    6
 DE= -1.24D-04 DEPred=-8.57D-05 R= 1.44D+00
 TightC=F SS=  1.41D+00  RLast= 1.76D-01 DXNew= 1.4245D+00 5.2878D-01
 Trust test= 1.44D+00 RLast= 1.76D-01 DXMaxT set to 8.47D-01
 ITU=  1  1  1  1  1  0
     Eigenvalues ---    0.00263   0.01201   0.01217   0.04766   0.05248
     Eigenvalues ---    0.06035   0.10330   0.10702   0.21179   0.34898
     Eigenvalues ---    0.35366   0.42457
 En-DIIS/RFO-DIIS/Sim-DIIS IScMMF=       -3 using points:     6    5    4
 RFO step:  Lambda=-1.04649366D-04.
 DidBck=F Rises=F RFO-DIIS coefs:    2.59983   -2.00000    0.40017
 Iteration  1 RMS(Cart)=  0.01796439 RMS(Int)=  0.00004055
 Iteration  2 RMS(Cart)=  0.00002636 RMS(Int)=  0.00002956
 Iteration  3 RMS(Cart)=  0.00000000 RMS(Int)=  0.00002956
 Variable       Old X    -DE/DX   Delta X   Delta X   Delta X     New X
                                 (Linear)    (Quad)   (Total)
    R1        2.04203   0.00044   0.00031   0.00006   0.00034   2.04237
    R2        2.04203   0.00042   0.00032   0.00004   0.00034   2.04237
    R3        2.04196   0.00044   0.00014   0.00021   0.00033   2.04229
    R4        6.39890  -0.00048   0.08996   0.00181   0.09178   6.49067
    R5        3.46376  -0.00078   0.00655  -0.00858  -0.00203   3.46172
    R6        6.07283   0.00047   0.09636   0.00357   0.09994   6.17277
    R7        6.07297   0.00047   0.09612   0.00355   0.09967   6.17264
    R8        6.07244   0.00051   0.09676   0.00376   0.10053   6.17296
    A1        1.92863   0.00032   0.00453   0.00181   0.00632   1.93495
    A2        1.92978   0.00050   0.00548   0.00045   0.00593   1.93570
    A3        1.89148  -0.00044  -0.00539  -0.00099  -0.00638   1.88511
    A4        1.92979   0.00050   0.00548   0.00044   0.00592   1.93570
    A5        1.89147  -0.00044  -0.00539  -0.00097  -0.00636   1.88511
    A6        1.89147  -0.00050  -0.00551  -0.00086  -0.00636   1.88511
    A7        0.55985   0.00014  -0.00807   0.00004  -0.00796   0.55189
    A8        0.56010   0.00018  -0.00795  -0.00022  -0.00808   0.55201
    A9        0.56009   0.00017  -0.00793  -0.00022  -0.00807   0.55202
   A10        3.14164   0.00002   0.00001  -0.00008  -0.00006   3.14158
   A11        3.14176   0.00003  -0.00012  -0.00013  -0.00026   3.14150
    D1       -2.14167  -0.00109  -0.01346  -0.00291  -0.01637  -2.15804
    D2        2.09347  -0.00012  -0.00072   0.00104   0.00032   2.09380
    D3       -2.09485  -0.00006  -0.00036   0.00052   0.00016  -2.09469
    D4        2.09486   0.00006   0.00036  -0.00052  -0.00016   2.09469
    D5       -0.54768  -0.00008   0.00035   0.00059   0.00093  -0.54674
    D6        0.54688  -0.00002  -0.00087   0.00030  -0.00057   0.54631
    D7       -0.54690   0.00002   0.00091  -0.00030   0.00060  -0.54630
         Item               Value     Threshold  Converged?
 Maximum Force            0.001092     0.000450     NO 
 RMS     Force            0.000423     0.000300     NO 
 Maximum Displacement     0.082261     0.001800     NO 
 RMS     Displacement     0.017966     0.001200     NO 
 Predicted change in Energy=-4.899143D-05
 GradGradGradGradGradGradGradGradGradGradGradGradGradGradGradGradGradGrad

                          Input orientation:                          
 ---------------------------------------------------------------------
 Center     Atomic      Atomic             Coordinates (Angstroms)
 Number     Number       Type             X           Y           Z
 ---------------------------------------------------------------------
      1          6           0        1.359917   -0.000610   -0.000009
      2          1           0        1.025754    0.513538   -0.889988
      3          1           0        1.025709    0.513538    0.889955
      4          1           0        1.025892   -1.028429   -0.000017
      5         35           0       -2.074799   -0.000647    0.000029
      6         17           0        3.191781   -0.000439    0.000030
 ---------------------------------------------------------------------
                    Distance matrix (angstroms):
                    1          2          3          4          5
     1  C    0.000000
     2  H    1.080776   0.000000
     3  H    1.080777   1.779943   0.000000
     4  H    1.080733   1.780369   1.780369   0.000000
     5  Br   3.434715   3.266488   3.266421   3.266592   0.000000
     6  Cl   1.831865   2.397494   2.397500   2.397465   5.266580
                    6
     6  Cl   0.000000
 Stoichiometry    CH3BrCl(1-)
 Framework group  C1[X(CH3BrCl)]
 Deg. of freedom    12
 Full point group                 C1      NOp   1
 Largest Abelian subgroup         C1      NOp   1
 Largest concise Abelian subgroup C1      NOp   1
                         Standard orientation:                         
 ---------------------------------------------------------------------
 Center     Atomic      Atomic             Coordinates (Angstroms)
 Number     Number       Type             X           Y           Z
 ---------------------------------------------------------------------
      1          6           0        1.476651    0.000090    0.000032
      2          1           0        1.142508   -0.514071    0.890011
      3          1           0        1.142463   -0.514071   -0.889931
      4          1           0        1.142589    1.027897    0.000040
      5         35           0       -1.958064   -0.000002   -0.000006
      6         17           0        3.308516   -0.000013   -0.000007
 ---------------------------------------------------------------------
 Rotational constants (GHZ):         158.2272712           0.7071767           0.7071757
 Standard basis: CC-pVDZ (5D, 7F)
 There are    78 symmetry adapted cartesian basis functions of A   symmetry.
 There are    74 symmetry adapted basis functions of A   symmetry.
    74 basis functions,   272 primitive gaussians,    78 cartesian basis functions
    31 alpha electrons       31 beta electrons
       nuclear repulsion energy       159.5759457249 Hartrees.
 NAtoms=    6 NActive=    6 NUniq=    6 SFac= 1.00D+00 NAtFMM=   60 NAOKFM=F Big=F
 Integral buffers will be    131072 words long.
 Raffenetti 1 integral format.
 Two-electron integral symmetry is turned on.
 One-electron integrals computed using PRISM.
 NBasis=    74 RedAO= T EigKep=  1.70D-02  NBF=    74
 NBsUse=    74 1.00D-06 EigRej= -1.00D+00 NBFU=    74
 Initial guess from the checkpoint file:  "C:\Users\chemistry\Documents\Gruppe H\inputCCopti.chk"
 B after Tr=     0.000000    0.000000    0.000000
         Rot=    0.999998   -0.001792    0.000000    0.000001 Ang=  -0.21 deg.
 ExpMin= 1.22D-01 ExpMax= 6.40D+05 ExpMxC= 6.18D+03 IAcc=3 IRadAn=         5 AccDes= 0.00D+00
 Harris functional with IExCor=  205 and IRadAn=       5 diagonalized for initial guess.
 HarFok:  IExCor=  205 AccDes= 0.00D+00 IRadAn=         5 IDoV= 1 UseB2=F ITyADJ=14
 ICtDFT=  3500011 ScaDFX=  1.000000  1.000000  1.000000  1.000000
 FoFCou: FMM=F IPFlag=           0 FMFlag=      100000 FMFlg1=           0
         NFxFlg=           0 DoJE=T BraDBF=F KetDBF=T FulRan=T
         wScrn=  0.000000 ICntrl=       500 IOpCl=  0 I1Cent=   200000004 NGrid=           0
         NMat0=    1 NMatS0=      1 NMatT0=    0 NMatD0=    1 NMtDS0=    0 NMtDT0=    0
 Petite list used in FoFCou.
 Keep R1 ints in memory in canonical form, NReq=4922333.
 Requested convergence on RMS density matrix=1.00D-08 within 128 cycles.
 Requested convergence on MAX density matrix=1.00D-06.
 Requested convergence on             energy=1.00D-06.
 No special actions if energy rises.
 SCF Done:  E(RHF) =  -3071.57495300     A.U. after    8 cycles
            NFock=  8  Conv=0.30D-08     -V/T= 2.0003
 Calling FoFJK, ICntrl=      2127 FMM=F ISym2X=0 I1Cent= 0 IOpClX= 0 NMat=1 NMatS=1 NMatT=0.
 ***** Axes restored to original set *****
 -------------------------------------------------------------------
 Center     Atomic                   Forces (Hartrees/Bohr)
 Number     Number              X              Y              Z
 -------------------------------------------------------------------
      1        6          -0.000589267    0.000090424    0.000000685
      2        1           0.000219364    0.000148601   -0.000346624
      3        1           0.000219980    0.000148035    0.000345847
      4        1           0.000194232   -0.000386394    0.000000100
      5       35          -0.000046323    0.000000467   -0.000000065
      6       17           0.000002014   -0.000001134    0.000000058
 -------------------------------------------------------------------
 Cartesian Forces:  Max     0.000589267 RMS     0.000226674

 GradGradGradGradGradGradGradGradGradGradGradGradGradGradGradGradGradGrad
 Berny optimization.
 Using GEDIIS/GDIIS optimizer.
 FormGI is forming the generalized inverse of G from B-inverse, IUseBI=4.
 Internal  Forces:  Max     0.000295186 RMS     0.000133050
 Search for a local minimum.
 Step number   7 out of a maximum of   36
 All quantities printed in internal units (Hartrees-Bohrs-Radians)
 Mixed Optimization -- En-DIIS/RFO-DIIS
 Swapping is turned off.
 Update second derivatives using D2CorX and points    5    6    7
 DE= -7.44D-05 DEPred=-4.90D-05 R= 1.52D+00
 TightC=F SS=  1.41D+00  RLast= 1.98D-01 DXNew= 1.4245D+00 5.9359D-01
 Trust test= 1.52D+00 RLast= 1.98D-01 DXMaxT set to 8.47D-01
 ITU=  1  1  1  1  1  1  0
     Eigenvalues ---    0.00252   0.01200   0.01216   0.04444   0.05304
     Eigenvalues ---    0.05607   0.10344   0.10699   0.20057   0.34920
     Eigenvalues ---    0.35379   0.41371
 En-DIIS/RFO-DIIS/Sim-DIIS IScMMF=       -3 using points:     7    6    5    4
 RFO step:  Lambda=-4.86613898D-06.
 DidBck=F Rises=F RFO-DIIS coefs:    1.01256    0.36514   -0.58643    0.20873
 Iteration  1 RMS(Cart)=  0.00215117 RMS(Int)=  0.00002497
 Iteration  2 RMS(Cart)=  0.00000219 RMS(Int)=  0.00002486
 Iteration  3 RMS(Cart)=  0.00000000 RMS(Int)=  0.00002486
 Variable       Old X    -DE/DX   Delta X   Delta X   Delta X     New X
                                 (Linear)    (Quad)   (Total)
    R1        2.04237   0.00027   0.00048   0.00006   0.00055   2.04292
    R2        2.04237   0.00026   0.00048   0.00006   0.00055   2.04292
    R3        2.04229   0.00028   0.00044   0.00016   0.00062   2.04291
    R4        6.49067  -0.00017   0.00681   0.00008   0.00692   6.49760
    R5        3.46172   0.00000   0.00195   0.00010   0.00205   3.46377
    R6        6.17277   0.00008   0.01179  -0.00003   0.01175   6.18452
    R7        6.17264   0.00008   0.01171   0.00000   0.01169   6.18433
    R8        6.17296   0.00009   0.01200  -0.00004   0.01194   6.18491
    A1        1.93495   0.00009   0.00247   0.00036   0.00280   1.93775
    A2        1.93570   0.00012   0.00247  -0.00025   0.00221   1.93791
    A3        1.88511  -0.00012  -0.00259   0.00005  -0.00255   1.88256
    A4        1.93570   0.00012   0.00247  -0.00025   0.00220   1.93791
    A5        1.88511  -0.00012  -0.00259   0.00005  -0.00254   1.88257
    A6        1.88511  -0.00013  -0.00262   0.00005  -0.00257   1.88254
    A7        0.55189   0.00008  -0.00040   0.00009  -0.00038   0.55152
    A8        0.55201   0.00009  -0.00042  -0.00001  -0.00049   0.55152
    A9        0.55202   0.00009  -0.00042  -0.00002  -0.00049   0.55153
   A10        3.14158   0.00000  -0.00001   0.00000  -0.00002   3.14156
   A11        3.14150   0.00001  -0.00007   0.00001  -0.00006   3.14144
    D1       -2.15804  -0.00030  -0.00662  -0.00011  -0.00678  -2.16482
    D2        2.09380  -0.00002   0.00001   0.00048   0.00048   2.09428
    D3       -2.09469  -0.00001   0.00000   0.00024   0.00024  -2.09445
    D4        2.09469   0.00001   0.00000  -0.00024  -0.00024   2.09445
    D5       -0.54674  -0.00002   0.00005   0.00025   0.00030  -0.54644
    D6        0.54631   0.00000  -0.00002   0.00014   0.00011   0.54642
    D7       -0.54630  -0.00001   0.00003  -0.00014  -0.00010  -0.54640
         Item               Value     Threshold  Converged?
 Maximum Force            0.000295     0.000450     YES
 RMS     Force            0.000133     0.000300     YES
 Maximum Displacement     0.008506     0.001800     NO 
 RMS     Displacement     0.002151     0.001200     NO 
 Predicted change in Energy=-2.173376D-06
 GradGradGradGradGradGradGradGradGradGradGradGradGradGradGradGradGradGrad

                          Input orientation:                          
 ---------------------------------------------------------------------
 Center     Atomic      Atomic             Coordinates (Angstroms)
 Number     Number       Type             X           Y           Z
 ---------------------------------------------------------------------
      1          6           0        1.359080   -0.000547   -0.000013
      2          1           0        1.027435    0.513938   -0.891095
      3          1           0        1.027372    0.513936    0.891046
      4          1           0        1.027639   -1.029546   -0.000023
      5         35           0       -2.079300   -0.000523    0.000043
      6         17           0        3.192030   -0.000306    0.000043
 ---------------------------------------------------------------------
                    Distance matrix (angstroms):
                    1          2          3          4          5
     1  C    0.000000
     2  H    1.081069   0.000000
     3  H    1.081069   1.782141   0.000000
     4  H    1.081060   1.782232   1.782229   0.000000
     5  Br   3.438380   3.272705   3.272608   3.272913   0.000000
     6  Cl   1.832950   2.396674   2.396680   2.396649   5.271330
                    6
     6  Cl   0.000000
 Stoichiometry    CH3BrCl(1-)
 Framework group  C1[X(CH3BrCl)]
 Deg. of freedom    12
 Full point group                 C1      NOp   1
 Largest Abelian subgroup         C1      NOp   1
 Largest concise Abelian subgroup C1      NOp   1
                         Standard orientation:                         
 ---------------------------------------------------------------------
 Center     Atomic      Atomic             Coordinates (Angstroms)
 Number     Number       Type             X           Y           Z
 ---------------------------------------------------------------------
      1          6           0        1.478327    0.000131    0.000045
      2          1           0        1.146701   -0.524669    0.885098
      3          1           0        1.146635   -0.503990   -0.896923
      4          1           0        1.146850    1.029049    0.011995
      5         35           0       -1.960053   -0.000011   -0.000004
      6         17           0        3.311277   -0.000046   -0.000017
 ---------------------------------------------------------------------
 Rotational constants (GHZ):         157.8769818           0.7058540           0.7058538
 Standard basis: CC-pVDZ (5D, 7F)
 There are    78 symmetry adapted cartesian basis functions of A   symmetry.
 There are    74 symmetry adapted basis functions of A   symmetry.
    74 basis functions,   272 primitive gaussians,    78 cartesian basis functions
    31 alpha electrons       31 beta electrons
       nuclear repulsion energy       159.4380757716 Hartrees.
 NAtoms=    6 NActive=    6 NUniq=    6 SFac= 1.00D+00 NAtFMM=   60 NAOKFM=F Big=F
 Integral buffers will be    131072 words long.
 Raffenetti 1 integral format.
 Two-electron integral symmetry is turned on.
 One-electron integrals computed using PRISM.
 NBasis=    74 RedAO= T EigKep=  1.70D-02  NBF=    74
 NBsUse=    74 1.00D-06 EigRej= -1.00D+00 NBFU=    74
 Initial guess from the checkpoint file:  "C:\Users\chemistry\Documents\Gruppe H\inputCCopti.chk"
[...]
 Thermal correction to Gibbs Free Energy=         0.009041
 Sum of electronic and zero-point Energies=          -3071.534702
 Sum of electronic and thermal Energies=             -3071.529304
 Sum of electronic and thermal Enthalpies=           -3071.528359
 Sum of electronic and thermal Free Energies=        -3071.565914
 
                     E (Thermal)             CV                S
                      KCal/Mol        Cal/Mol-Kelvin    Cal/Mol-Kelvin
 Total                   28.647             13.626             79.041
 Electronic               0.000              0.000              0.000
 Translational            0.889              2.981             40.475
 Rotational               0.889              2.981             25.815
 Vibrational             26.870              7.665             12.752
 Vibration     1          0.598              1.969              4.183
 Vibration     2          0.598              1.969              4.183
 Vibration     3          0.600              1.961              3.840
                       Q            Log10(Q)             Ln(Q)
 Total Bot       0.693896D-04         -4.158705         -9.575773
 Total V=0       0.227415D+15         14.356819         33.057798
 Vib (Bot)       0.123341D-16        -16.908892        -38.934163
 Vib (Bot)    1  0.299184D+01          0.475939          1.095890
 Vib (Bot)    2  0.299161D+01          0.475905          1.095813
 Vib (Bot)    3  0.250783D+01          0.399298          0.919418
 Vib (V=0)       0.404234D+02          1.606633          3.699408
 Vib (V=0)    1  0.353334D+01          0.548185          1.262243
 Vib (V=0)    2  0.353311D+01          0.548157          1.262178
 Vib (V=0)    3  0.305719D+01          0.485322          1.117496
 Electronic      0.100000D+01          0.000000          0.000000
 Translational   0.575290D+08          7.759887         17.867800
 Rotational      0.977912D+05          4.990300         11.490590
 ***** Axes restored to original set *****
 -------------------------------------------------------------------
 Center     Atomic                   Forces (Hartrees/Bohr)
 Number     Number              X              Y              Z
 -------------------------------------------------------------------
      1        6          -0.000003105    0.000002996    0.000000118
      2        1          -0.000000378   -0.000002203    0.000000953
      3        1          -0.000000009   -0.000002197   -0.000000992
      4        1          -0.000002005    0.000001566   -0.000000024
      5       35           0.000006023   -0.000000231   -0.000000078
      6       17          -0.000000527    0.000000070    0.000000023
 -------------------------------------------------------------------
 Cartesian Forces:  Max     0.000006023 RMS     0.000002020
 FormGI is forming the generalized inverse of G from B-inverse, IUseBI=4.

 GradGradGradGradGradGradGradGradGradGradGradGradGradGradGradGradGradGrad
 Berny optimization.
 Internal  Forces:  Max     0.000002168 RMS     0.000000881
 Search for a local minimum.
 Step number   1 out of a maximum of    2
 All quantities printed in internal units (Hartrees-Bohrs-Radians)
 Second derivative matrix not updated -- analytic derivatives used.
 ITU=  0
     Eigenvalues ---    0.00159   0.00161   0.00204   0.03744   0.04655
     Eigenvalues ---    0.05097   0.10912   0.11316   0.20473   0.36919
     Eigenvalues ---    0.37330   0.37532
 Angle between quadratic step and forces=  44.14 degrees.
 Linear search not attempted -- first point.
 Iteration  1 RMS(Cart)=  0.00016793 RMS(Int)=  0.00000001
 Iteration  2 RMS(Cart)=  0.00000001 RMS(Int)=  0.00000000
 Variable       Old X    -DE/DX   Delta X   Delta X   Delta X     New X
                                 (Linear)    (Quad)   (Total)
    R1        2.04290   0.00000   0.00000  -0.00001  -0.00001   2.04290
    R2        2.04290   0.00000   0.00000  -0.00001  -0.00001   2.04290
    R3        2.04290   0.00000   0.00000  -0.00001  -0.00001   2.04290
    R4        6.49455   0.00000   0.00000  -0.00079  -0.00079   6.49376
    R5        3.46374   0.00000   0.00000   0.00003   0.00003   3.46376
    R6        6.18153   0.00000   0.00000  -0.00068  -0.00068   6.18085
    R7        6.18138   0.00000   0.00000  -0.00053  -0.00053   6.18085
    R8        6.18189   0.00000   0.00000  -0.00104  -0.00104   6.18085
    A1        1.93779   0.00000   0.00000   0.00002   0.00002   1.93781
    A2        1.93783   0.00000   0.00000  -0.00001  -0.00001   1.93781
    A3        1.88260   0.00000   0.00000   0.00000   0.00000   1.88260
    A4        1.93782   0.00000   0.00000  -0.00001  -0.00001   1.93781
    A5        1.88261   0.00000   0.00000  -0.00001  -0.00001   1.88260
    A6        1.88259   0.00000   0.00000   0.00001   0.00001   1.88260
    A7        0.55179   0.00000   0.00000   0.00006   0.00006   0.55185
    A8        0.55177   0.00000   0.00000   0.00007   0.00007   0.55185
    A9        0.55178   0.00000   0.00000   0.00007   0.00007   0.55185
   A10        3.14156   0.00000   0.00000   0.00003   0.00003   3.14159
   A11        3.14145   0.00000   0.00000   0.00014   0.00014   3.14159
    D1       -2.16475   0.00000   0.00000  -0.00001  -0.00001  -2.16476
    D2        2.09438   0.00000   0.00000   0.00002   0.00002   2.09440
    D3       -2.09441   0.00000   0.00000   0.00001   0.00001  -2.09440
    D4        2.09440   0.00000   0.00000  -0.00001  -0.00001   2.09440
    D5       -0.54642   0.00000   0.00000  -0.00003  -0.00003  -0.54645
    D6        0.54647   0.00000   0.00000  -0.00002  -0.00002   0.54645
    D7       -0.54645   0.00000   0.00000   0.00000   0.00000  -0.54645
         Item               Value     Threshold  Converged?
 Maximum Force            0.000002     0.000450     YES
 RMS     Force            0.000001     0.000300     YES
 Maximum Displacement     0.000655     0.001800     YES
 RMS     Displacement     0.000168     0.001200     YES
 Predicted change in Energy=-2.548872D-09
 Optimization completed.
    -- Stationary point found.
                           ----------------------------
                           !   Optimized Parameters   !
                           ! (Angstroms and Degrees)  !
 --------------------------                            --------------------------
 ! Name  Definition              Value          Derivative Info.                !
 --------------------------------------------------------------------------------
 ! R1    R(1,2)                  1.0811         -DE/DX =    0.0                 !
 ! R2    R(1,3)                  1.0811         -DE/DX =    0.0                 !
 ! R3    R(1,4)                  1.0811         -DE/DX =    0.0                 !
 ! R4    R(1,5)                  3.4368         -DE/DX =    0.0                 !
 ! R5    R(1,6)                  1.8329         -DE/DX =    0.0                 !
 ! R6    R(2,5)                  3.2711         -DE/DX =    0.0                 !
 ! R7    R(3,5)                  3.271          -DE/DX =    0.0                 !
 ! R8    R(4,5)                  3.2713         -DE/DX =    0.0                 !
 ! A1    A(2,1,3)              111.0272         -DE/DX =    0.0                 !
 ! A2    A(2,1,4)              111.0292         -DE/DX =    0.0                 !
 ! A3    A(2,1,6)              107.8653         -DE/DX =    0.0                 !
 ! A4    A(3,1,4)              111.029          -DE/DX =    0.0                 !
 ! A5    A(3,1,6)              107.8656         -DE/DX =    0.0                 !
 ! A6    A(4,1,6)              107.8645         -DE/DX =    0.0                 !
 ! A7    A(2,5,3)               31.6153         -DE/DX =    0.0                 !
 ! A8    A(2,5,4)               31.6144         -DE/DX =    0.0                 !
 ! A9    A(3,5,4)               31.6147         -DE/DX =    0.0                 !
 ! A10   L(5,1,6,2,-1)         179.9983         -DE/DX =    0.0                 !
 ! A11   L(5,1,6,2,-2)         179.992          -DE/DX =    0.0                 !
 ! D1    D(2,1,4,3)           -124.0311         -DE/DX =    0.0                 !
 ! D2    D(2,1,6,3)            119.9989         -DE/DX =    0.0                 !
 ! D3    D(2,1,6,4)           -120.0006         -DE/DX =    0.0                 !
 ! D4    D(3,1,6,4)            120.0005         -DE/DX =    0.0                 !
 ! D5    D(3,2,5,1)            -31.3074         -DE/DX =    0.0                 !
 ! D6    D(4,2,5,1)             31.3102         -DE/DX =    0.0                 !
 ! D7    D(4,3,5,1)            -31.3091         -DE/DX =    0.0                 !
 --------------------------------------------------------------------------------
 GradGradGradGradGradGradGradGradGradGradGradGradGradGradGradGradGradGrad


 ----------------------------------------------------------------------

 Electric dipole moment (input orientation):
 (Debye = 10**-18 statcoulomb cm , SI units = C m)
                  (au)            (Debye)         (10**-30 SI)
   Tot        0.205704D+01      0.522847D+01      0.174403D+02
   x          0.205704D+01      0.522847D+01      0.174403D+02
   y         -0.296176D-04     -0.752806D-04     -0.251109D-03
   z         -0.369243D-04     -0.938522D-04     -0.313057D-03

 Dipole polarizability, Alpha (input orientation).
 (esu units = cm**3 , SI units = C**2 m**2 J**-1)
 Alpha(0;0):
               (au)            (10**-24 esu)      (10**-40 SI)
   iso        0.350363D+02      0.519185D+01      0.577671D+01
   aniso      0.281780D+02      0.417555D+01      0.464593D+01
   xx         0.538217D+02      0.797555D+01      0.887399D+01
   yx         0.216841D-02      0.321326D-03      0.357523D-03
   yy         0.256437D+02      0.380000D+01      0.422807D+01
   zx         0.316241D-03      0.468621D-04      0.521411D-04
   zy         0.000000D+00      0.000000D+00      0.000000D+00
   zz         0.256436D+02      0.379999D+01      0.422806D+01

 First dipole hyperpolarizability, Beta (input orientation).
 ||, _|_  parallel and perpendicular components, (z) with respect to z axis,
 vector components x,y,z.  Values do not include the 1/n! factor of 1/2.
 (esu units = statvolt**-1 cm**4 , SI units = C**3 m**3 J**-2)
 Beta(0;0,0):
               (au)            (10**-30 esu)      (10**-50 SI)
   || (z)    -0.333201D-02     -0.287860D-04     -0.106836D-04
   _|_(z)    -0.111067D-02     -0.959533D-05     -0.356121D-05
   x          0.154392D+04      0.133383D+02      0.495038D+01
   y          0.148966D-01      0.128695D-03      0.477638D-04
   z         -0.166601D-01     -0.143930D-03     -0.534182D-04
   ||         0.308785D+03      0.266766D+01      0.990076D+00
   xxx        0.507780D+03      0.438682D+01      0.162812D+01
   xxy        0.142628D-01      0.123219D-03      0.457316D-04
   yxy        0.342849D+01      0.296195D-01      0.109930D-01
   yyy       -0.229095D+02     -0.197920D+00     -0.734561D-01
   xxz       -0.233149D-02     -0.201423D-04     -0.747561D-05
   yxz        0.112366D-02      0.970757D-05      0.360287D-05
   yyz       -0.820789D-03     -0.709098D-05     -0.263175D-05
   zxz        0.343347D+01      0.296625D-01      0.110090D-01
   zyz        0.229002D+02      0.197840D+00      0.734263D-01
   zzz       -0.240107D-02     -0.207434D-04     -0.769870D-05

 ----------------------------------------------------------------------

 Dipole orientation:
     6         -0.00002485         -0.00096387          2.56783039
     1          1.68390238          0.97113778          1.94104616
     1         -1.68386567          0.97118288          1.94088491
     1         -0.00002528         -1.94545505          1.94141334
    35          0.00000185         -0.00104012         -3.92672315
    17         -0.00017880         -0.00047226          6.03156920

 Electric dipole moment (dipole orientation):
 (Debye = 10**-18 statcoulomb cm , SI units = C m)
                  (au)            (Debye)         (10**-30 SI)
   Tot        0.205704D+01      0.522847D+01      0.174403D+02
   x          0.000000D+00      0.000000D+00      0.000000D+00
   y          0.000000D+00      0.000000D+00      0.000000D+00
   z          0.205704D+01      0.522847D+01      0.174403D+02

 Dipole polarizability, Alpha (dipole orientation).
 (esu units = cm**3 , SI units = C**2 m**2 J**-1)
 Alpha(0;0):
               (au)            (10**-24 esu)      (10**-40 SI)
   iso        0.350363D+02      0.519185D+01      0.577671D+01
   aniso      0.281780D+02      0.417555D+01      0.464593D+01
   xx         0.256436D+02      0.379999D+01      0.422806D+01
   yx         0.000000D+00      0.000000D+00      0.000000D+00
   yy         0.256437D+02      0.380000D+01      0.422807D+01
   zx        -0.822006D-03     -0.121809D-03     -0.135530D-03
   zy         0.257414D-02      0.381448D-03      0.424418D-03
   zz         0.538217D+02      0.797555D+01      0.887399D+01

 First dipole hyperpolarizability, Beta (dipole orientation).
 ||, _|_  parallel and perpendicular components, (z) with respect to z axis,
 vector components x,y,z.  Values do not include the 1/n! factor of 1/2.
 (esu units = statvolt**-1 cm**4 , SI units = C**3 m**3 J**-2)
 Beta(0;0,0):
               (au)            (10**-30 esu)      (10**-50 SI)
   || (z)     0.308785D+03      0.266766D+01      0.990076D+00
   _|_(z)     0.102928D+03      0.889220D+00      0.330025D+00
   x         -0.110532D-01     -0.954908D-04     -0.354405D-04
   y          0.371265D-01      0.320744D-03      0.119041D-03
   z          0.154392D+04      0.133383D+02      0.495038D+01
   ||         0.308785D+03      0.266766D+01      0.990076D+00
   xxx        0.320536D-02      0.276918D-04      0.102775D-04
   xxy        0.229002D+02      0.197840D+00      0.734265D-01
   yxy       -0.230088D-03     -0.198779D-05     -0.737747D-06
   yyy       -0.229093D+02     -0.197919D+00     -0.734556D-01
   xxz        0.343314D+01      0.296597D-01      0.110079D-01
   yxz       -0.713024D-03     -0.615997D-05     -0.228621D-05
   yyz        0.342882D+01      0.296223D-01      0.109940D-01
   zxz       -0.665966D-02     -0.575343D-04     -0.213533D-04
   zyz        0.214752D-01      0.185529D-03      0.688572D-04
   zzz        0.507780D+03      0.438682D+01      0.162812D+01

 ----------------------------------------------------------------------
 Unable to Open any file for archive entry.
 1|1|UNPC-LAPTOP-PP56KN09|Freq|RHF|CC-pVDZ|C1H3Br1Cl1(1-)|CHEMISTRY|01-
 Dec-2022|0||#N Geom=AllCheck Guess=TCheck SCRF=Check GenChk RHF/CC-pVD
 Z Freq||Title Card Required||-1,1|C,1.358837317,-0.0005296244,-0.00001
 12479|H,1.0271487955,0.5139020243,-0.8910938015|H,1.0270954588,0.51390
 0229,0.8910523041|H,1.0273368754,-1.0295052681,-0.0000198874|Br,-2.077
 9324118,-0.0005204919,0.0000363121|Cl,3.1917689651,-0.0002958689,0.000
 0373207||Version=EM64W-G16RevC.01|State=1-A|HF=-3071.5749558|RMSD=8.39
 0e-010|RMSF=2.020e-006|ZeroPoint=0.040254|Thermal=0.0456523|ETot=-3071
 .5293035|HTot=-3071.5283593|GTot=-3071.5659145|Dipole=2.0570398,-0.000
 0296,-0.0000369|DipoleDeriv=1.3658555,0.0001458,0.0000289,0.0001611,0.
 0973357,-0.0000061,0.0000335,-0.0000061,0.0972986,-0.0295661,0.008103,
 -0.0140814,0.021064,0.0644805,0.0425974,-0.0365441,0.0425948,0.0152937
 ,-0.0295528,0.0081042,0.0140723,0.021067,0.0644832,-0.0425916,0.036533
 7,-0.042589,0.0153029,-0.0295944,-0.0162632,-0.0000056,-0.0421969,-0.0
 093267,0.,-0.0000078,0.,0.0890754,-1.1707574,-0.0000052,0.0000017,-0.0
 00003,-0.922507,0.,0.0000025,0.,-0.9225072,-1.1063848,-0.0000846,-0.00
 00159,-0.0000921,-0.2944658,0.0000003,-0.0000177,0.0000003,-0.2944634|
 Polar=53.8216629,0.0021684,25.6436523,0.0003162,0.0000034,25.6436139|P
 olarDeriv=-21.1682729,-0.0018866,3.0823301,-0.0002244,0.0000643,3.0829
 488,-0.0027825,2.36635,2.8175157,0.0001311,0.0000603,-2.8161159,-0.000
 5054,0.0001311,0.000113,2.3674116,-2.8163748,0.0002261,-2.9524411,0.77
 42514,-0.8140558,-1.3408904,0.5095991,-1.4027985,1.2757704,-1.4646817,
 1.8208012,0.954938,-1.8495588,1.4966734,-2.2091994,0.9548139,-1.023816
 9,-2.5678932,1.9732865,-4.7232138,-2.9531553,0.7742179,-0.8141352,1.34
 09095,-0.5096348,-1.4028261,1.2758166,-1.4647395,1.8207741,-0.9550288,
 1.8494253,1.4965683,2.2094376,-0.9549167,1.0237283,-2.5679008,1.973179
 7,4.7228179,-2.9503924,-1.5482261,-1.6965652,0.0000376,-0.000041,-0.51
 9817,-2.5503798,-3.1186351,-6.3606752,-0.0000777,-0.0000557,-0.2767487
 ,0.0000773,-0.0000656,-0.0000342,-0.9135425,-1.2302395,-0.000098,4.324
 2694,0.0001127,0.0516039,-0.0000432,0.000007,0.0516436,0.0000618,-1.62
 19041,-0.0361045,0.0000395,0.0000016,0.03602,-0.0000832,0.0000395,0.00
 00063,-1.6216638,0.0359317,0.0000095,25.6999923,0.0015308,0.1908222,0.
 0002109,0.0000053,0.1908491,0.0015134,5.3036103,-0.0623112,-0.0000021,
 0.0001273,0.0636028,0.0002732,-0.0000021,0.0000035,5.3035886,0.0642163
 ,0.0002584|HyperPolar=507.7796162,0.0142628,3.4284876,-22.9094947,-0.0
 023315,0.0011237,-0.0008208,3.4334718,22.9001974,-0.0024011|Quadrupole
 =-16.5167761,8.2584052,8.2583709,-0.0011471,-0.0000338,0.0000012|PG=C0
 1 [X(C1H3Br1Cl1)]|NImag=0||0.30380116,-0.00004989,0.67125676,-0.000010
 83,0.00000008,0.67124485,-0.06661281,0.04617461,-0.07997957,0.08210783
 ,0.04564093,-0.13472907,0.13071348,-0.04742491,0.13266962,-0.07905366,
 0.13071311,-0.28568336,0.08214934,-0.13908996,0.29329832,-0.06662204,0
 .04618270,0.07999275,0.00574755,-0.00549268,-0.00857882,0.08211729,0.0
 4564876,-0.13472888,-0.13071101,-0.00549349,0.01085258,0.01544358,-0.0
 4743317,0.13266966,0.07906681,-0.13071068,-0.28567524,0.00858001,-0.01
 544372,-0.01867696,-0.08216188,0.13908717,0.29328994,-0.06657996,-0.09
 229879,-0.00000048,0.00574522,0.01017602,0.00046893,0.00574569,0.01017
 744,-0.00046870,0.08207441,-0.09123051,-0.36117950,-0.00000243,-0.0046
 7954,-0.01129252,-0.00265810,-0.00467981,-0.01129267,0.00265785,0.0948
 0426,0.37363100,-0.00000026,-0.00000239,-0.05926641,0.00904240,0.02823
 260,0.00347219,-0.00904223,-0.02823207,0.00347166,0.00000095,0.0000024
 6,0.05236979,0.00216254,-0.00000003,-0.00000006,-0.00108797,0.00058086
 ,-0.00100661,-0.00108833,0.00058103,0.00100676,-0.00108709,-0.00116180
 ,-0.00000008,0.00785972,-0.00000040,-0.00148476,-0.00000008,0.00014527
 ,-0.00030108,-0.00067445,0.00014524,-0.00030115,0.00067447,-0.00029063
 ,0.00086736,0.00000005,0.00000042,0.00032306,-0.00000017,-0.00000008,-
 0.00148526,-0.00025151,-0.00067439,0.00047792,0.00025149,0.00067442,0.
 00047778,0.00000002,0.00000004,-0.00069015,0.00000003,0.,0.00032305,-0
 .10614889,-0.00000859,-0.00000181,-0.02589981,-0.00348022,0.00602082,-
 0.02590017,-0.00348057,-0.00602300,-0.02589827,0.00694741,-0.00000078,
 -0.00675886,0.00000009,0.00000013,0.19060599,-0.00000889,-0.03913455,-
 0.00000005,0.01127807,0.00280047,-0.00373417,0.01127771,0.00280046,0.0
 0373490,-0.02256829,0.00926634,-0.00000066,-0.00000047,0.00089657,0.00
 000001,0.00002188,0.02337071,-0.00000189,-0.00000005,-0.03913458,-0.01
 954069,-0.00373801,0.00711189,0.01953869,0.00373791,0.00711282,-0.0000
 0071,0.00000017,0.00064292,-0.00000005,0.00000001,0.00089666,0.0000046
 3,-0.00000003,0.02337029||0.00000310,-0.00000300,-0.00000012,0.0000003
 8,0.00000220,-0.00000095,0.,0.00000220,0.00000099,0.00000201,-0.000001
 57,0.00000002,-0.00000602,0.00000023,0.00000008,0.00000053,-0.00000007
 ,-0.00000002|||@
 The archive entry for this job was punched.


 BRING ME INTO THE COMPANY OF THOSE WHO SEEK TRUTH,
 AND DELIVER ME FROM THOSE WHO HAVE FOUND IT.
 Job cpu time:       0 days  0 hours  0 minutes 13.0 seconds.
 Elapsed time:       0 days  0 hours  0 minutes 11.8 seconds.
 File lengths (MBytes):  RWF=      9 Int=      0 D2E=      0 Chk=      2 Scr=      1
 Normal termination of Gaussian 16 at Thu Dec 01 12:36:50 2022.
