 Entering Link 1 = C:\G16W\l1.exe PID=      3916.
  
 Copyright (c) 1988-2019, Gaussian, Inc.  All Rights Reserved.
  
 This is part of the Gaussian(R) 16 program.  It is based on
 the Gaussian(R) 09 system (copyright 2009, Gaussian, Inc.),
 the Gaussian(R) 03 system (copyright 2003, Gaussian, Inc.),
 the Gaussian(R) 98 system (copyright 1998, Gaussian, Inc.),
 the Gaussian(R) 94 system (copyright 1995, Gaussian, Inc.),
 the Gaussian 92(TM) system (copyright 1992, Gaussian, Inc.),
 the Gaussian 90(TM) system (copyright 1990, Gaussian, Inc.),
 the Gaussian 88(TM) system (copyright 1988, Gaussian, Inc.),
 the Gaussian 86(TM) system (copyright 1986, Carnegie Mellon
 University), and the Gaussian 82(TM) system (copyright 1983,
 Carnegie Mellon University). Gaussian is a federally registered
 trademark of Gaussian, Inc.
  
 This software contains proprietary and confidential information,
 including trade secrets, belonging to Gaussian, Inc.
  
 This software is provided under written license and may be
 used, copied, transmitted, or stored only in accord with that
 written license.
  
 The following legend is applicable only to US Government
 contracts under FAR:
  
                    RESTRICTED RIGHTS LEGEND
  
 Use, reproduction and disclosure by the US Government is
 subject to restrictions as set forth in subparagraphs (a)
 and (c) of the Commercial Computer Software - Restricted
 Rights clause in FAR 52.227-19.
  
 Gaussian, Inc.
 340 Quinnipiac St., Bldg. 40, Wallingford CT 06492
  
  
 ---------------------------------------------------------------
 Warning -- This program may not be used in any manner that
 competes with the business of Gaussian, Inc. or will provide
 assistance to any competitor of Gaussian, Inc.  The licensee
 of this program is prohibited from giving any competitor of
 Gaussian, Inc. access to this program.  By using this program,
 the user acknowledges that Gaussian, Inc. is engaged in the
 business of creating and licensing software in the field of
 computational chemistry and represents and warrants to the
 licensee that it is not a competitor of Gaussian, Inc. and that
 it will not use this program in any manner prohibited above.
 ---------------------------------------------------------------
  

 Cite this work as:
 Gaussian 16, Revision C.01,
 M. J. Frisch, G. W. Trucks, H. B. Schlegel, G. E. Scuseria, 
 M. A. Robb, J. R. Cheeseman, G. Scalmani, V. Barone, 
 G. A. Petersson, H. Nakatsuji, X. Li, M. Caricato, A. V. Marenich, 
 J. Bloino, B. G. Janesko, R. Gomperts, B. Mennucci, H. P. Hratchian, 
 J. V. Ortiz, A. F. Izmaylov, J. L. Sonnenberg, D. Williams-Young, 
 F. Ding, F. Lipparini, F. Egidi, J. Goings, B. Peng, A. Petrone, 
 T. Henderson, D. Ranasinghe, V. G. Zakrzewski, J. Gao, N. Rega, 
 G. Zheng, W. Liang, M. Hada, M. Ehara, K. Toyota, R. Fukuda, 
 J. Hasegawa, M. Ishida, T. Nakajima, Y. Honda, O. Kitao, H. Nakai, 
 T. Vreven, K. Throssell, J. A. Montgomery, Jr., J. E. Peralta, 
 F. Ogliaro, M. J. Bearpark, J. J. Heyd, E. N. Brothers, K. N. Kudin, 
 V. N. Staroverov, T. A. Keith, R. Kobayashi, J. Normand, 
 K. Raghavachari, A. P. Rendell, J. C. Burant, S. S. Iyengar, 
 J. Tomasi, M. Cossi, J. M. Millam, M. Klene, C. Adamo, R. Cammi, 
 J. W. Ochterski, R. L. Martin, K. Morokuma, O. Farkas, 
 J. B. Foresman, and D. J. Fox, Gaussian, Inc., Wallingford CT, 2019.
 
 ******************************************
 Gaussian 16:  EM64W-G16RevC.01 30-May-2019
                01-Dec-2022 
 ******************************************
 %chk=C:\Users\chemistry\Documents\Gruppe H\inputOptimierung2.chk
 --------------------------------------
 # opt freq hf/sto-3g geom=connectivity
 --------------------------------------
 1/18=20,19=15,38=1,57=2/1,3;
 2/9=110,12=2,17=6,18=5,40=1/2;
 3/6=3,11=9,25=1,30=1,71=1/1,2,3;
 4//1;
 5/5=2,38=5/2;
 6/7=2,8=2,9=2,10=2,28=1/1;
 7//1,2,3,16;
 1/18=20,19=15/3(2);
 2/9=110/2;
 99//99;
 2/9=110/2;
 3/6=3,11=9,25=1,30=1,71=1/1,2,3;
 4/5=5,16=3,69=1/1;
 5/5=2,38=5/2;
 7//1,2,3,16;
 1/18=20,19=15/3(-5);
 2/9=110/2;
 6/7=2,8=2,9=2,10=2,19=2,28=1/1;
 99/9=1/99;
 -------------------
 Title Card Required
 -------------------
 Symbolic Z-matrix:
 Charge = -1 Multiplicity = 1
 C                     1.54915  -2.11538   0. 
 H                     1.87885  -1.66027   0.92383 
 H                     1.879    -3.14315  -0.06803 
 H                     1.87838  -1.5426   -0.85611 
 Br                   -0.42146  -2.11474   0.00032 
 Cl                    4.14914  -2.11468   0.00034 
 
 Add virtual bond connecting atoms Cl6        and C1         Dist= 4.91D+00.
 Add virtual bond connecting atoms Cl6        and H2         Dist= 4.71D+00.
 Add virtual bond connecting atoms Cl6        and H3         Dist= 4.71D+00.
 Add virtual bond connecting atoms Cl6        and H4         Dist= 4.71D+00.

 GradGradGradGradGradGradGradGradGradGradGradGradGradGradGradGradGradGrad
 Berny optimization.
 Initialization pass.
                           ----------------------------
                           !    Initial Parameters    !
                           ! (Angstroms and Degrees)  !
 --------------------------                            --------------------------
 ! Name  Definition              Value          Derivative Info.                !
 --------------------------------------------------------------------------------
 ! R1    R(1,2)                  1.0813         estimate D2E/DX2                !
 ! R2    R(1,3)                  1.0815         estimate D2E/DX2                !
 ! R3    R(1,4)                  1.0814         estimate D2E/DX2                !
 ! R4    R(1,5)                  1.9706         estimate D2E/DX2                !
 ! R5    R(1,6)                  2.6            estimate D2E/DX2                !
 ! R6    R(2,6)                  2.4927         estimate D2E/DX2                !
 ! R7    R(3,6)                  2.4932         estimate D2E/DX2                !
 ! R8    R(4,6)                  2.4934         estimate D2E/DX2                !
 ! A1    A(2,1,3)              111.1433         estimate D2E/DX2                !
 ! A2    A(2,1,4)              111.1371         estimate D2E/DX2                !
 ! A3    A(2,1,5)              107.7357         estimate D2E/DX2                !
 ! A4    A(3,1,4)              111.1425         estimate D2E/DX2                !
 ! A5    A(3,1,5)              107.7766         estimate D2E/DX2                !
 ! A6    A(4,1,5)              107.7226         estimate D2E/DX2                !
 ! A7    A(2,6,3)               41.9319         estimate D2E/DX2                !
 ! A8    A(2,6,4)               41.925          estimate D2E/DX2                !
 ! A9    A(3,6,4)               41.9264         estimate D2E/DX2                !
 ! A10   L(5,1,6,2,-1)         179.9698         estimate D2E/DX2                !
 ! A11   L(5,1,6,2,-2)         180.0245         estimate D2E/DX2                !
 ! D1    D(2,1,4,3)            124.3426         estimate D2E/DX2                !
 ! D2    D(2,1,5,3)           -120.0151         estimate D2E/DX2                !
 ! D3    D(2,1,5,4)            119.9779         estimate D2E/DX2                !
 ! D4    D(3,1,5,4)           -120.0069         estimate D2E/DX2                !
 ! D5    D(3,2,6,1)             32.3702         estimate D2E/DX2                !
 ! D6    D(4,2,6,1)            -32.3745         estimate D2E/DX2                !
 ! D7    D(4,3,6,1)             32.3762         estimate D2E/DX2                !
 --------------------------------------------------------------------------------
 Trust Radius=3.00D-01 FncErr=1.00D-07 GrdErr=1.00D-07 EigMax=2.50D+02 EigMin=1.00D-04
 Number of steps in this run=     36 maximum allowed number of steps=    100.
 GradGradGradGradGradGradGradGradGradGradGradGradGradGradGradGradGradGrad

                          Input orientation:                          
 ---------------------------------------------------------------------
 Center     Atomic      Atomic             Coordinates (Angstroms)
 Number     Number       Type             X           Y           Z
 ---------------------------------------------------------------------
      1          6           0        1.549145   -2.115385    0.000000
      2          1           0        1.878846   -1.660270    0.923826
      3          1           0        1.879001   -3.143154   -0.068028
      4          1           0        1.878378   -1.542602   -0.856109
      5         35           0       -0.421459   -2.114742    0.000318
      6         17           0        4.149143   -2.114678    0.000343
 ---------------------------------------------------------------------
                    Distance matrix (angstroms):
                    1          2          3          4          5
     1  C    0.000000
     2  H    1.081336   0.000000
     3  H    1.081546   1.784018   0.000000
     4  H    1.081387   1.783820   1.784051   0.000000
     5  Br   1.970604   2.520082   2.520797   2.519933   0.000000
     6  Cl   2.599998   2.492701   2.493187   2.493422   4.570602
                    6
     6  Cl   0.000000
 Stoichiometry    CH3BrCl(1-)
 Framework group  C1[X(CH3BrCl)]
 Deg. of freedom    12
 Full point group                 C1      NOp   1
 Largest Abelian subgroup         C1      NOp   1
 Largest concise Abelian subgroup C1      NOp   1
                         Standard orientation:                         
 ---------------------------------------------------------------------
 Center     Atomic      Atomic             Coordinates (Angstroms)
 Number     Number       Type             X           Y           Z
 ---------------------------------------------------------------------
      1          6           0       -0.389875    0.000569   -0.000272
      2          1           0       -0.719576   -0.456832    0.922425
      3          1           0       -0.719731    1.028503   -0.065755
      4          1           0       -0.719108   -0.570093   -0.857796
      5         35           0        1.580729   -0.000075    0.000045
      6         17           0       -2.989873   -0.000139    0.000070
 ---------------------------------------------------------------------
 Rotational constants (GHZ):         157.5648583           0.9843696           0.9843686
 Standard basis: STO-3G (5D, 7F)
 There are    36 symmetry adapted cartesian basis functions of A   symmetry.
 There are    35 symmetry adapted basis functions of A   symmetry.
    35 basis functions,   108 primitive gaussians,    36 cartesian basis functions
    31 alpha electrons       31 beta electrons
       nuclear repulsion energy       188.6103475131 Hartrees.
 NAtoms=    6 NActive=    6 NUniq=    6 SFac= 1.00D+00 NAtFMM=   60 NAOKFM=F Big=F
 Integral buffers will be    131072 words long.
 Raffenetti 1 integral format.
 Two-electron integral symmetry is turned on.
 One-electron integrals computed using PRISM.
 NBasis=    35 RedAO= T EigKep=  2.35D-01  NBF=    35
 NBsUse=    35 1.00D-06 EigRej= -1.00D+00 NBFU=    35
 ExpMin= 1.69D-01 ExpMax= 2.63D+03 ExpMxC= 2.63D+03 IAcc=3 IRadAn=         5 AccDes= 0.00D+00
 Harris functional with IExCor=  205 and IRadAn=       5 diagonalized for initial guess.
 HarFok:  IExCor=  205 AccDes= 0.00D+00 IRadAn=         5 IDoV= 1 UseB2=F ITyADJ=14
 ICtDFT=  3500011 ScaDFX=  1.000000  1.000000  1.000000  1.000000
 FoFCou: FMM=F IPFlag=           0 FMFlag=      100000 FMFlg1=           0
         NFxFlg=           0 DoJE=T BraDBF=F KetDBF=T FulRan=T
         wScrn=  0.000000 ICntrl=       500 IOpCl=  0 I1Cent=   200000004 NGrid=           0
         NMat0=    1 NMatS0=      1 NMatT0=    0 NMatD0=    1 NMtDS0=    0 NMtDT0=    0
 Petite list used in FoFCou.
 Keep R1 ints in memory in canonical form, NReq=1031344.
 Requested convergence on RMS density matrix=1.00D-08 within 128 cycles.
 Requested convergence on MAX density matrix=1.00D-06.
 Requested convergence on             energy=1.00D-06.
 No special actions if energy rises.
 SCF Done:  E(RHF) =  -3038.29414007     A.U. after    8 cycles
            NFock=  8  Conv=0.56D-08     -V/T= 2.0019

 **********************************************************************

            Population analysis using the SCF Density.

 **********************************************************************

 Orbital symmetries:
       Occupied  (A) (A) (A) (A) (A) (A) (A) (A) (A) (A) (A) (A)
                 (A) (A) (A) (A) (A) (A) (A) (A) (A) (A) (A) (A)
                 (A) (A) (A) (A) (A) (A) (A)
       Virtual   (A) (A) (A) (A)
 The electronic state is 1-A.
 Alpha  occ. eigenvalues -- -484.27038-103.04763 -62.99935 -57.54907 -57.54713
 Alpha  occ. eigenvalues --  -57.54713 -10.91355  -9.77682  -8.95132  -7.21768
 Alpha  occ. eigenvalues --   -7.21715  -7.21715  -6.70202  -6.69127  -6.69127
 Alpha  occ. eigenvalues --   -2.05789  -2.05398  -2.05398  -2.04317  -2.04317
 Alpha  occ. eigenvalues --   -0.80064  -0.63054  -0.54249  -0.39229  -0.39227
 Alpha  occ. eigenvalues --   -0.25258  -0.15274  -0.15273   0.02221   0.02221
 Alpha  occ. eigenvalues --    0.03346
 Alpha virt. eigenvalues --    0.52523   0.87265   0.87276   0.89227
          Condensed to atoms (all electrons):
               1          2          3          4          5          6
     1  C    4.792417   0.389296   0.389246   0.389283   0.210710  -0.014662
     2  H    0.389296   0.567898  -0.018782  -0.018785  -0.020623  -0.005034
     3  H    0.389246  -0.018782   0.567959  -0.018782  -0.020584  -0.005022
     4  H    0.389283  -0.018785  -0.018782   0.567995  -0.020632  -0.005029
     5  Br   0.210710  -0.020623  -0.020584  -0.020632  35.064506   0.000337
     6  Cl  -0.014662  -0.005034  -0.005022  -0.005029   0.000337  17.977350
 Mulliken charges:
               1
     1  C   -0.156290
     2  H    0.106029
     3  H    0.105966
     4  H    0.105949
     5  Br  -0.213715
     6  Cl  -0.947939
 Sum of Mulliken charges =  -1.00000
 Mulliken charges with hydrogens summed into heavy atoms:
               1
     1  C    0.161653
     5  Br  -0.213715
     6  Cl  -0.947939
 Electronic spatial extent (au):  <R**2>=            988.4659
 Charge=             -1.0000 electrons
 Dipole moment (field-independent basis, Debye):
    X=             10.4747    Y=              0.0014    Z=             -0.0006  Tot=             10.4747
 Quadrupole moment (field-independent basis, Debye-Ang):
   XX=            -80.7116   YY=            -35.8413   ZZ=            -35.8419
   XY=             -0.0027   XZ=              0.0007   YZ=             -0.0002
 Traceless Quadrupole moment (field-independent basis, Debye-Ang):
   XX=            -29.9133   YY=             14.9569   ZZ=             14.9564
   XY=             -0.0027   XZ=              0.0007   YZ=             -0.0002
 Octapole moment (field-independent basis, Debye-Ang**2):
  XXX=            162.0692  YYY=              0.6377  ZZZ=              0.1245  XYY=             13.6287
  XXY=              0.0048  XXZ=             -0.0018  XZZ=             13.6295  YZZ=             -0.6402
  YYZ=             -0.1230  XYZ=              0.0004
 Hexadecapole moment (field-independent basis, Debye-Ang**3):
 XXXX=          -1330.7292 YYYY=            -36.3880 ZZZZ=            -36.3883 XXXY=             -0.0244
 XXXZ=              0.0108 YYYX=             -0.5402 YYYZ=             -0.0006 ZZZX=             -0.1016
 ZZZY=              0.0006 XXYY=           -166.9109 XXZZ=           -166.9115 YYZZ=            -12.1301
 XXYZ=             -0.0005 YYXZ=              0.1040 ZZXY=              0.5345
 N-N= 1.886103475131D+02 E-N=-7.670775941134D+03  KE= 3.032626006373D+03
 Calling FoFJK, ICntrl=      2127 FMM=F ISym2X=0 I1Cent= 0 IOpClX= 0 NMat=1 NMatS=1 NMatT=0.
 ***** Axes restored to original set *****
 -------------------------------------------------------------------
 Center     Atomic                   Forces (Hartrees/Bohr)
 Number     Number              X              Y              Z
 -------------------------------------------------------------------
      1        6          -0.026101768   -0.000067824   -0.000053297
      2        1           0.000008064    0.000028368    0.000086910
      3        1          -0.000105462    0.000072556    0.000007945
      4        1           0.000019176    0.000016652   -0.000042581
      5       35           0.000007438   -0.000050790    0.000002785
      6       17           0.026172552    0.000001038   -0.000001762
 -------------------------------------------------------------------
 Cartesian Forces:  Max     0.026172552 RMS     0.008712514

 GradGradGradGradGradGradGradGradGradGradGradGradGradGradGradGradGradGrad
 Berny optimization.
 FormGI is forming the generalized inverse of G from B-inverse, IUseBI=4.
 Internal  Forces:  Max     0.011542744 RMS     0.003406033
 Search for a local minimum.
 Step number   1 out of a maximum of   36
 All quantities printed in internal units (Hartrees-Bohrs-Radians)
 Mixed Optimization -- RFO/linear search
 Second derivative matrix not updated -- first step.
 ITU=  0
     Eigenvalues ---    0.02253   0.02276   0.03285   0.04935   0.05424
     Eigenvalues ---    0.07136   0.10592   0.10827   0.15195   0.32823
     Eigenvalues ---    0.33397   0.33620
 RFO step:  Lambda=-5.87777236D-03 EMin= 2.25290226D-02
 Linear search not attempted -- first point.
 Maximum step size (   0.300) exceeded in Quadratic search.
    -- Step size scaled by   0.861
 Iteration  1 RMS(Cart)=  0.03146183 RMS(Int)=  0.00052046
 Iteration  2 RMS(Cart)=  0.00030673 RMS(Int)=  0.00038739
 Iteration  3 RMS(Cart)=  0.00000009 RMS(Int)=  0.00038739
 Variable       Old X    -DE/DX   Delta X   Delta X   Delta X     New X
                                 (Linear)    (Quad)   (Total)
    R1        2.04343  -0.00008   0.00000   0.00304   0.00294   2.04637
    R2        2.04383  -0.00006   0.00000   0.00262   0.00247   2.04629
    R3        2.04352   0.00001   0.00000   0.00302   0.00285   2.04638
    R4        3.72390  -0.00001   0.00000  -0.00004  -0.00004   3.72386
    R5        4.91328   0.01154   0.00000   0.19356   0.19352   5.10680
    R6        4.71052   0.00521   0.00000   0.12539   0.12545   4.83597
    R7        4.71144   0.00520   0.00000   0.12485   0.12491   4.83635
    R8        4.71189   0.00492   0.00000   0.12481   0.12492   4.83680
    A1        1.93982  -0.00156   0.00000  -0.02257  -0.02359   1.91622
    A2        1.93971  -0.00295   0.00000  -0.02428  -0.02506   1.91465
    A3        1.88034   0.00252   0.00000   0.02563   0.02579   1.90613
    A4        1.93980  -0.00294   0.00000  -0.02433  -0.02509   1.91471
    A5        1.88106   0.00243   0.00000   0.02478   0.02495   1.90601
    A6        1.88011   0.00303   0.00000   0.02582   0.02589   1.90601
    A7        0.73185  -0.00128   0.00000  -0.02522  -0.02489   0.70696
    A8        0.73173  -0.00161   0.00000  -0.02559  -0.02519   0.70654
    A9        0.73175  -0.00160   0.00000  -0.02563  -0.02524   0.70651
   A10        3.14107  -0.00009   0.00000   0.00039   0.00041   3.14148
   A11        3.14202  -0.00028   0.00000  -0.00060  -0.00056   3.14146
    D1        2.17019  -0.00634   0.00000  -0.06492  -0.06390   2.10629
    D2       -2.09466  -0.00089   0.00000  -0.00116  -0.00101  -2.09567
    D3        2.09401  -0.00043   0.00000  -0.00034  -0.00025   2.09376
    D4       -2.09452   0.00046   0.00000   0.00083   0.00076  -2.09376
    D5        0.56497  -0.00072   0.00000  -0.00384  -0.00365   0.56132
    D6       -0.56504  -0.00011   0.00000   0.00271   0.00265  -0.56239
    D7        0.56507   0.00010   0.00000  -0.00270  -0.00265   0.56243
         Item               Value     Threshold  Converged?
 Maximum Force            0.011543     0.000450     NO 
 RMS     Force            0.003406     0.000300     NO 
 Maximum Displacement     0.136051     0.001800     NO 
 RMS     Displacement     0.031530     0.001200     NO 
 Predicted change in Energy=-3.151700D-03
 GradGradGradGradGradGradGradGradGradGradGradGradGradGradGradGradGradGrad

                          Input orientation:                          
 ---------------------------------------------------------------------
 Center     Atomic      Atomic             Coordinates (Angstroms)
 Number     Number       Type             X           Y           Z
 ---------------------------------------------------------------------
      1          6           0        1.518735   -2.115245    0.000178
      2          1           0        1.875144   -1.662859    0.917225
      3          1           0        1.875041   -3.135525   -0.067949
      4          1           0        1.874845   -1.546606   -0.849821
      5         35           0       -0.451848   -2.115420    0.000357
      6         17           0        4.221138   -2.115173    0.000361
 ---------------------------------------------------------------------
                    Distance matrix (angstroms):
                    1          2          3          4          5
     1  C    0.000000
     2  H    1.082892   0.000000
     3  H    1.082851   1.771810   0.000000
     4  H    1.082895   1.770866   1.770872   0.000000
     5  Br   1.970583   2.541722   2.541592   2.541624   0.000000
     6  Cl   2.702404   2.559085   2.559288   2.559525   4.672986
                    6
     6  Cl   0.000000
 Stoichiometry    CH3BrCl(1-)
 Framework group  C1[X(CH3BrCl)]
 Deg. of freedom    12
 Full point group                 C1      NOp   1
 Largest Abelian subgroup         C1      NOp   1
 Largest concise Abelian subgroup C1      NOp   1
                         Standard orientation:                         
 ---------------------------------------------------------------------
 Center     Atomic      Atomic             Coordinates (Angstroms)
 Number     Number       Type             X           Y           Z
 ---------------------------------------------------------------------
      1          6           0       -0.360012    0.000034   -0.000139
      2          1           0       -0.716443   -0.884548    0.512820
      3          1           0       -0.716261    0.887256    0.508281
      4          1           0       -0.716157   -0.002580   -1.022790
      5         35           0        1.610571   -0.000006    0.000039
      6         17           0       -3.062415   -0.000007    0.000068
 ---------------------------------------------------------------------
 Rotational constants (GHZ):         159.8472700           0.9429993           0.9429953
 Standard basis: STO-3G (5D, 7F)
 There are    36 symmetry adapted cartesian basis functions of A   symmetry.
 There are    35 symmetry adapted basis functions of A   symmetry.
    35 basis functions,   108 primitive gaussians,    36 cartesian basis functions
    31 alpha electrons       31 beta electrons
       nuclear repulsion energy       185.8441203096 Hartrees.
 NAtoms=    6 NActive=    6 NUniq=    6 SFac= 1.00D+00 NAtFMM=   60 NAOKFM=F Big=F
 Integral buffers will be    131072 words long.
 Raffenetti 1 integral format.
 Two-electron integral symmetry is turned on.
 One-electron integrals computed using PRISM.
 NBasis=    35 RedAO= T EigKep=  2.35D-01  NBF=    35
 NBsUse=    35 1.00D-06 EigRej= -1.00D+00 NBFU=    35
 Initial guess from the checkpoint file:  "C:\Users\chemistry\Documents\Gruppe H\inputOptimierung2.chk"
 B after Tr=     0.000000    0.000000    0.000000
         Rot=    0.957589   -0.288136   -0.000001    0.000002 Ang= -33.49 deg.
 ExpMin= 1.69D-01 ExpMax= 2.63D+03 ExpMxC= 2.63D+03 IAcc=3 IRadAn=         5 AccDes= 0.00D+00
 Harris functional with IExCor=  205 and IRadAn=       5 diagonalized for initial guess.
 HarFok:  IExCor=  205 AccDes= 0.00D+00 IRadAn=         5 IDoV= 1 UseB2=F ITyADJ=14
 ICtDFT=  3500011 ScaDFX=  1.000000  1.000000  1.000000  1.000000
 FoFCou: FMM=F IPFlag=           0 FMFlag=      100000 FMFlg1=           0
         NFxFlg=           0 DoJE=T BraDBF=F KetDBF=T FulRan=T
         wScrn=  0.000000 ICntrl=       500 IOpCl=  0 I1Cent=   200000004 NGrid=           0
         NMat0=    1 NMatS0=      1 NMatT0=    0 NMatD0=    1 NMtDS0=    0 NMtDT0=    0
 Petite list used in FoFCou.
 Keep R1 ints in memory in canonical form, NReq=1031295.
 Requested convergence on RMS density matrix=1.00D-08 within 128 cycles.
 Requested convergence on MAX density matrix=1.00D-06.
 Requested convergence on             energy=1.00D-06.
 No special actions if energy rises.
 SCF Done:  E(RHF) =  -3038.29820124     A.U. after    8 cycles
            NFock=  8  Conv=0.51D-08     -V/T= 2.0019
 Calling FoFJK, ICntrl=      2127 FMM=F ISym2X=0 I1Cent= 0 IOpClX= 0 NMat=1 NMatS=1 NMatT=0.
 ***** Axes restored to original set *****
 -------------------------------------------------------------------
 Center     Atomic                   Forces (Hartrees/Bohr)
 Number     Number              X              Y              Z
 -------------------------------------------------------------------
      1        6          -0.020884836    0.000125509   -0.000138759
      2        1          -0.001948599    0.000225680    0.000734426
      3        1          -0.001923153   -0.000796812    0.000066276
      4        1          -0.001982210    0.000439755   -0.000663283
      5       35           0.008958592    0.000003384    0.000004064
      6       17           0.017780206    0.000002483   -0.000002725
 -------------------------------------------------------------------
 Cartesian Forces:  Max     0.020884836 RMS     0.006855214

 GradGradGradGradGradGradGradGradGradGradGradGradGradGradGradGradGradGrad
 Berny optimization.
 Using GEDIIS/GDIIS optimizer.
 FormGI is forming the generalized inverse of G from B-inverse, IUseBI=4.
 Internal  Forces:  Max     0.008958592 RMS     0.002656185
 Search for a local minimum.
 Step number   2 out of a maximum of   36
 All quantities printed in internal units (Hartrees-Bohrs-Radians)
 Mixed Optimization -- RFO/linear search
 Update second derivatives using D2CorX and points    1    2
 DE= -4.06D-03 DEPred=-3.15D-03 R= 1.29D+00
 TightC=F SS=  1.41D+00  RLast= 3.07D-01 DXNew= 5.0454D-01 9.2072D-01
 Trust test= 1.29D+00 RLast= 3.07D-01 DXMaxT set to 5.05D-01
 ITU=  1  0
 Use linear search instead of GDIIS.
 Linear search step of   0.600 exceeds DXMaxT=   0.505 but not scaled.
 Quartic linear search produced a step of  2.00000.
 Iteration  1 RMS(Cart)=  0.04486930 RMS(Int)=  0.03525534
 Iteration  2 RMS(Cart)=  0.01843457 RMS(Int)=  0.00227543
 Iteration  3 RMS(Cart)=  0.00008500 RMS(Int)=  0.00227347
 Iteration  4 RMS(Cart)=  0.00000003 RMS(Int)=  0.00227347
 Variable       Old X    -DE/DX   Delta X   Delta X   Delta X     New X
                                 (Linear)    (Quad)   (Total)
    R1        2.04637   0.00003   0.00588   0.00000   0.00539   2.05176
    R2        2.04629   0.00013   0.00493   0.00000   0.00409   2.05038
    R3        2.04638   0.00011   0.00570   0.00000   0.00487   2.05124
    R4        3.72386  -0.00896  -0.00008   0.00000  -0.00008   3.72378
    R5        5.10680   0.00652   0.38704   0.00000   0.38642   5.49323
    R6        4.83597   0.00400   0.25090   0.00000   0.25129   5.08726
    R7        4.83635   0.00400   0.24982   0.00000   0.25021   5.08657
    R8        4.83680   0.00390   0.24983   0.00000   0.25059   5.08739
    A1        1.91622  -0.00070  -0.04719   0.00000  -0.05314   1.86308
    A2        1.91465  -0.00111  -0.05012   0.00000  -0.05440   1.86025
    A3        1.90613   0.00093   0.05158   0.00000   0.05243   1.95857
    A4        1.91471  -0.00113  -0.05018   0.00000  -0.05437   1.86035
    A5        1.90601   0.00094   0.04990   0.00000   0.05080   1.95681
    A6        1.90601   0.00110   0.05179   0.00000   0.05194   1.95794
    A7        0.70696  -0.00076  -0.04977   0.00000  -0.04792   0.65904
    A8        0.70654  -0.00087  -0.05039   0.00000  -0.04813   0.65841
    A9        0.70651  -0.00085  -0.05049   0.00000  -0.04826   0.65825
   A10        3.14148  -0.00005   0.00083   0.00000   0.00100   3.14248
   A11        3.14146  -0.00007  -0.00112   0.00000  -0.00082   3.14063
    D1        2.10629  -0.00228  -0.12779   0.00000  -0.12132   1.98497
    D2       -2.09567  -0.00027  -0.00203   0.00000  -0.00100  -2.09667
    D3        2.09376  -0.00013  -0.00051   0.00000   0.00006   2.09381
    D4       -2.09376   0.00014   0.00152   0.00000   0.00105  -2.09270
    D5        0.56132  -0.00025  -0.00730   0.00000  -0.00613   0.55519
    D6       -0.56239   0.00000   0.00530   0.00000   0.00501  -0.55738
    D7        0.56243  -0.00001  -0.00529   0.00000  -0.00505   0.55738
         Item               Value     Threshold  Converged?
 Maximum Force            0.008959     0.000450     NO 
 RMS     Force            0.002656     0.000300     NO 
 Maximum Displacement     0.271598     0.001800     NO 
 RMS     Displacement     0.063239     0.001200     NO 
 Predicted change in Energy=-2.327067D-03
 GradGradGradGradGradGradGradGradGradGradGradGradGradGradGradGradGradGrad

                          Input orientation:                          
 ---------------------------------------------------------------------
 Center     Atomic      Atomic             Coordinates (Angstroms)
 Number     Number       Type             X           Y           Z
 ---------------------------------------------------------------------
      1          6           0        1.457972   -2.114956    0.000486
      2          1           0        1.867924   -1.669701    0.901892
      3          1           0        1.867313   -3.117522   -0.067031
      4          1           0        1.867552   -1.556048   -0.835046
      5         35           0       -0.512567   -2.116562   -0.000026
      6         17           0        4.364862   -2.116039    0.000076
 ---------------------------------------------------------------------
                    Distance matrix (angstroms):
                    1          2          3          4          5
     1  C    0.000000
     2  H    1.085747   0.000000
     3  H    1.085015   1.742125   0.000000
     4  H    1.085471   1.740652   1.740129   0.000000
     5  Br   1.970540   2.584546   2.582681   2.583873   0.000000
     6  Cl   2.906890   2.692060   2.691695   2.692132   4.877429
                    6
     6  Cl   0.000000
 Stoichiometry    CH3BrCl(1-)
 Framework group  C1[X(CH3BrCl)]
 Deg. of freedom    12
 Full point group                 C1      NOp   1
 Largest Abelian subgroup         C1      NOp   1
 Largest concise Abelian subgroup C1      NOp   1
                         Standard orientation:                         
 ---------------------------------------------------------------------
 Center     Atomic      Atomic             Coordinates (Angstroms)
 Number     Number       Type             X           Y           Z
 ---------------------------------------------------------------------
      1          6           0       -0.300375   -0.001153   -0.000436
      2          1           0       -0.710409   -0.928397    0.388071
      3          1           0       -0.709581    0.800027    0.606126
      4          1           0       -0.710009    0.124924   -0.997708
      5         35           0        1.670164    0.000164    0.000095
      6         17           0       -3.207264    0.000272    0.000164
 ---------------------------------------------------------------------
 Rotational constants (GHZ):         165.4419069           0.8676327           0.8676264
 Standard basis: STO-3G (5D, 7F)
 There are    36 symmetry adapted cartesian basis functions of A   symmetry.
 There are    35 symmetry adapted basis functions of A   symmetry.
    35 basis functions,   108 primitive gaussians,    36 cartesian basis functions
    31 alpha electrons       31 beta electrons
       nuclear repulsion energy       180.7356080241 Hartrees.
 NAtoms=    6 NActive=    6 NUniq=    6 SFac= 1.00D+00 NAtFMM=   60 NAOKFM=F Big=F
 Integral buffers will be    131072 words long.
 Raffenetti 1 integral format.
 Two-electron integral symmetry is turned on.
 One-electron integrals computed using PRISM.
 NBasis=    35 RedAO= T EigKep=  2.33D-01  NBF=    35
 NBsUse=    35 1.00D-06 EigRej= -1.00D+00 NBFU=    35
 Initial guess from the checkpoint file:  "C:\Users\chemistry\Documents\Gruppe H\inputOptimierung2.chk"
 B after Tr=     0.000000    0.000000    0.000000
         Rot=    0.997945   -0.064071    0.000000    0.000001 Ang=  -7.35 deg.
 ExpMin= 1.69D-01 ExpMax= 2.63D+03 ExpMxC= 2.63D+03 IAcc=3 IRadAn=         5 AccDes= 0.00D+00
 Harris functional with IExCor=  205 and IRadAn=       5 diagonalized for initial guess.
 HarFok:  IExCor=  205 AccDes= 0.00D+00 IRadAn=         5 IDoV= 1 UseB2=F ITyADJ=14
 ICtDFT=  3500011 ScaDFX=  1.000000  1.000000  1.000000  1.000000
 FoFCou: FMM=F IPFlag=           0 FMFlag=      100000 FMFlg1=           0
         NFxFlg=           0 DoJE=T BraDBF=F KetDBF=T FulRan=T
         wScrn=  0.000000 ICntrl=       500 IOpCl=  0 I1Cent=   200000004 NGrid=           0
         NMat0=    1 NMatS0=      1 NMatT0=    0 NMatD0=    1 NMtDS0=    0 NMtDT0=    0
 Petite list used in FoFCou.
 Keep R1 ints in memory in canonical form, NReq=1031173.
 Requested convergence on RMS density matrix=1.00D-08 within 128 cycles.
 Requested convergence on MAX density matrix=1.00D-06.
 Requested convergence on             energy=1.00D-06.
 No special actions if energy rises.
 SCF Done:  E(RHF) =  -3038.30108835     A.U. after    9 cycles
            NFock=  9  Conv=0.13D-08     -V/T= 2.0019
 Calling FoFJK, ICntrl=      2127 FMM=F ISym2X=0 I1Cent= 0 IOpClX= 0 NMat=1 NMatS=1 NMatT=0.
 ***** Axes restored to original set *****
 -------------------------------------------------------------------
 Center     Atomic                   Forces (Hartrees/Bohr)
 Number     Number              X              Y              Z
 -------------------------------------------------------------------
      1        6          -0.006144608    0.000512248   -0.000080130
      2        1          -0.008083547    0.001222164    0.003001625
      3        1          -0.007696727   -0.003805832   -0.000018760
      4        1          -0.008034459    0.001970438   -0.002939703
      5       35           0.023257585    0.000094645    0.000039930
      6       17           0.006701755    0.000006336   -0.000002962
 -------------------------------------------------------------------
 Cartesian Forces:  Max     0.023257585 RMS     0.006873916

 GradGradGradGradGradGradGradGradGradGradGradGradGradGradGradGradGradGrad
 Berny optimization.
 Using GEDIIS/GDIIS optimizer.
 FormGI is forming the generalized inverse of G from B-inverse, IUseBI=4.
 Internal  Forces:  Max     0.023257664 RMS     0.005111068
 Search for a local minimum.
 Step number   3 out of a maximum of   36
 All quantities printed in internal units (Hartrees-Bohrs-Radians)
 Mixed Optimization -- RFO/linear search
 Update second derivatives using D2CorX and points    2    3
 ITU=  0  1  0
 Use linear search instead of GDIIS.
     Eigenvalues ---    0.01001   0.02192   0.02248   0.04342   0.04698
     Eigenvalues ---    0.08123   0.10599   0.10852   0.19548   0.32937
     Eigenvalues ---    0.33565   0.33928
 RFO step:  Lambda=-4.72329080D-03 EMin= 1.00104348D-02
 Quartic linear search produced a step of -0.03430.
 Iteration  1 RMS(Cart)=  0.03515190 RMS(Int)=  0.00017179
 Iteration  2 RMS(Cart)=  0.00010903 RMS(Int)=  0.00012642
 Iteration  3 RMS(Cart)=  0.00000000 RMS(Int)=  0.00012642
 Variable       Old X    -DE/DX   Delta X   Delta X   Delta X     New X
                                 (Linear)    (Quad)   (Total)
    R1        2.05176  -0.00008  -0.00019   0.00192   0.00164   2.05341
    R2        2.05038   0.00034  -0.00014   0.00318   0.00293   2.05331
    R3        2.05124   0.00018  -0.00017   0.00252   0.00224   2.05348
    R4        3.72378  -0.02326   0.00000  -0.13549  -0.13548   3.58830
    R5        5.49323  -0.00273  -0.01325   0.14698   0.13368   5.62691
    R6        5.08726   0.00333  -0.00862   0.16016   0.15159   5.23885
    R7        5.08657   0.00329  -0.00858   0.16040   0.15188   5.23844
    R8        5.08739   0.00371  -0.00859   0.15996   0.15142   5.23881
    A1        1.86308   0.00210   0.00182   0.01066   0.01232   1.87540
    A2        1.86025   0.00377   0.00187   0.01378   0.01553   1.87578
    A3        1.95857  -0.00275  -0.00180  -0.01223  -0.01399   1.94458
    A4        1.86035   0.00370   0.00186   0.01370   0.01546   1.87581
    A5        1.95681  -0.00257  -0.00174  -0.01103  -0.01272   1.94409
    A6        1.95794  -0.00341  -0.00178  -0.01159  -0.01333   1.94461
    A7        0.65904   0.00013   0.00164  -0.01799  -0.01602   0.64302
    A8        0.65841   0.00050   0.00165  -0.01725  -0.01529   0.64312
    A9        0.65825   0.00056   0.00166  -0.01707  -0.01511   0.64314
   A10        3.14248   0.00010  -0.00003  -0.00062  -0.00066   3.14182
   A11        3.14063   0.00040   0.00003   0.00049   0.00052   3.14116
    D1        1.98497   0.00580   0.00416   0.02469   0.02894   2.01391
    D2       -2.09667   0.00106   0.00003   0.00269   0.00273  -2.09394
    D3        2.09381   0.00051   0.00000   0.00096   0.00096   2.09477
    D4       -2.09270  -0.00055  -0.00004  -0.00174  -0.00177  -2.09447
    D5        0.55519   0.00079   0.00021  -0.00023   0.00003   0.55521
    D6       -0.55738   0.00029  -0.00017   0.00254   0.00232  -0.55506
    D7        0.55738  -0.00030   0.00017  -0.00261  -0.00239   0.55499
         Item               Value     Threshold  Converged?
 Maximum Force            0.023258     0.000450     NO 
 RMS     Force            0.005111     0.000300     NO 
 Maximum Displacement     0.102918     0.001800     NO 
 RMS     Displacement     0.035163     0.001200     NO 
 Predicted change in Energy=-2.659687D-03
 GradGradGradGradGradGradGradGradGradGradGradGradGradGradGradGradGradGrad

                          Input orientation:                          
 ---------------------------------------------------------------------
 Center     Atomic      Atomic             Coordinates (Angstroms)
 Number     Number       Type             X           Y           Z
 ---------------------------------------------------------------------
      1          6           0        1.440739   -2.114953    0.000037
      2          1           0        1.837365   -1.668160    0.907671
      3          1           0        1.837326   -3.124366   -0.066515
      4          1           0        1.837358   -1.552419   -0.840837
      5         35           0       -0.458105   -2.115591    0.000054
      6         17           0        4.418372   -2.115340   -0.000059
 ---------------------------------------------------------------------
                    Distance matrix (angstroms):
                    1          2          3          4          5
     1  C    0.000000
     2  H    1.086617   0.000000
     3  H    1.086565   1.752020   0.000000
     4  H    1.086656   1.752334   1.752310   0.000000
     5  Br   1.898844   2.508615   2.508199   2.508667   0.000000
     6  Cl   2.977632   2.772280   2.772065   2.772259   4.876476
                    6
     6  Cl   0.000000
 Stoichiometry    CH3BrCl(1-)
 Framework group  C1[X(CH3BrCl)]
 Deg. of freedom    12
 Full point group                 C1      NOp   1
 Largest Abelian subgroup         C1      NOp   1
 Largest concise Abelian subgroup C1      NOp   1
                         Standard orientation:                         
 ---------------------------------------------------------------------
 Center     Atomic      Atomic             Coordinates (Angstroms)
 Number     Number       Type             X           Y           Z
 ---------------------------------------------------------------------
      1          6           0       -0.240163    0.000227   -0.000402
      2          1           0       -0.636795   -0.534952   -0.858890
      3          1           0       -0.636693   -0.475970    0.892137
      4          1           0       -0.636834    1.011322   -0.034445
      5         35           0        1.658681   -0.000029    0.000060
      6         17           0       -3.217796   -0.000043    0.000090
 ---------------------------------------------------------------------
 Rotational constants (GHZ):         163.3253315           0.8694947           0.8694936
 Standard basis: STO-3G (5D, 7F)
 There are    36 symmetry adapted cartesian basis functions of A   symmetry.
 There are    35 symmetry adapted basis functions of A   symmetry.
    35 basis functions,   108 primitive gaussians,    36 cartesian basis functions
    31 alpha electrons       31 beta electrons
       nuclear repulsion energy       182.7753778979 Hartrees.
 NAtoms=    6 NActive=    6 NUniq=    6 SFac= 1.00D+00 NAtFMM=   60 NAOKFM=F Big=F
 Integral buffers will be    131072 words long.
 Raffenetti 1 integral format.
 Two-electron integral symmetry is turned on.
 One-electron integrals computed using PRISM.
 NBasis=    35 RedAO= T EigKep=  2.32D-01  NBF=    35
 NBsUse=    35 1.00D-06 EigRej= -1.00D+00 NBFU=    35
 Initial guess from the checkpoint file:  "C:\Users\chemistry\Documents\Gruppe H\inputOptimierung2.chk"
 B after Tr=     0.000000    0.000000    0.000000
         Rot=    0.761137   -0.648591    0.000004   -0.000002 Ang= -80.87 deg.
 ExpMin= 1.69D-01 ExpMax= 2.63D+03 ExpMxC= 2.63D+03 IAcc=3 IRadAn=         5 AccDes= 0.00D+00
 Harris functional with IExCor=  205 and IRadAn=       5 diagonalized for initial guess.
 HarFok:  IExCor=  205 AccDes= 0.00D+00 IRadAn=         5 IDoV= 1 UseB2=F ITyADJ=14
 ICtDFT=  3500011 ScaDFX=  1.000000  1.000000  1.000000  1.000000
 FoFCou: FMM=F IPFlag=           0 FMFlag=      100000 FMFlg1=           0
         NFxFlg=           0 DoJE=T BraDBF=F KetDBF=T FulRan=T
         wScrn=  0.000000 ICntrl=       500 IOpCl=  0 I1Cent=   200000004 NGrid=           0
         NMat0=    1 NMatS0=      1 NMatT0=    0 NMatD0=    1 NMtDS0=    0 NMtDT0=    0
 Petite list used in FoFCou.
 Keep R1 ints in memory in canonical form, NReq=1031143.
 Requested convergence on RMS density matrix=1.00D-08 within 128 cycles.
 Requested convergence on MAX density matrix=1.00D-06.
 Requested convergence on             energy=1.00D-06.
 No special actions if energy rises.
 SCF Done:  E(RHF) =  -3038.30300430     A.U. after    8 cycles
            NFock=  8  Conv=0.70D-08     -V/T= 2.0019
 Calling FoFJK, ICntrl=      2127 FMM=F ISym2X=0 I1Cent= 0 IOpClX= 0 NMat=1 NMatS=1 NMatT=0.
 ***** Axes restored to original set *****
 -------------------------------------------------------------------
 Center     Atomic                   Forces (Hartrees/Bohr)
 Number     Number              X              Y              Z
 -------------------------------------------------------------------
      1        6           0.020203633   -0.000009184    0.000011775
      2        1          -0.003265714   -0.000100711   -0.000278174
      3        1          -0.003202974    0.000271808   -0.000015787
      4        1          -0.003267619   -0.000189708    0.000281536
      5       35          -0.016011771    0.000026953    0.000000216
      6       17           0.005544445    0.000000843    0.000000434
 -------------------------------------------------------------------
 Cartesian Forces:  Max     0.020203633 RMS     0.006356028

 GradGradGradGradGradGradGradGradGradGradGradGradGradGradGradGradGradGrad
 Berny optimization.
 Using GEDIIS/GDIIS optimizer.
 FormGI is forming the generalized inverse of G from B-inverse, IUseBI=4.
 Internal  Forces:  Max     0.016011761 RMS     0.003259146
 Search for a local minimum.
 Step number   4 out of a maximum of   36
 All quantities printed in internal units (Hartrees-Bohrs-Radians)
 Mixed Optimization -- RFO/linear search
 Update second derivatives using D2CorX and points    3    4
 DE= -1.92D-03 DEPred=-2.66D-03 R= 7.20D-01
 TightC=F SS=  1.41D+00  RLast= 3.29D-01 DXNew= 8.4853D-01 9.8574D-01
 Trust test= 7.20D-01 RLast= 3.29D-01 DXMaxT set to 8.49D-01
 ITU=  1  0  1  0
 Use linear search instead of GDIIS.
     Eigenvalues ---    0.00961   0.02197   0.02248   0.04412   0.04805
     Eigenvalues ---    0.07234   0.10509   0.10822   0.31492   0.33076
     Eigenvalues ---    0.33625   0.35182
 RFO step:  Lambda=-1.17015595D-03 EMin= 9.61237447D-03
 Quartic linear search produced a step of -0.18108.
 Iteration  1 RMS(Cart)=  0.01890314 RMS(Int)=  0.00009232
 Iteration  2 RMS(Cart)=  0.00006751 RMS(Int)=  0.00005821
 Iteration  3 RMS(Cart)=  0.00000000 RMS(Int)=  0.00005821
 Variable       Old X    -DE/DX   Delta X   Delta X   Delta X     New X
                                 (Linear)    (Quad)   (Total)
    R1        2.05341  -0.00131  -0.00030  -0.00182  -0.00213   2.05128
    R2        2.05331  -0.00129  -0.00053  -0.00114  -0.00169   2.05162
    R3        2.05348  -0.00132  -0.00041  -0.00167  -0.00209   2.05139
    R4        3.58830   0.01601   0.02453   0.01777   0.04230   3.63060
    R5        5.62691   0.00048  -0.02421   0.10133   0.07713   5.70404
    R6        5.23885   0.00173  -0.02745   0.12326   0.09581   5.33466
    R7        5.23844   0.00172  -0.02750   0.12362   0.09612   5.33456
    R8        5.23881   0.00181  -0.02742   0.12338   0.09597   5.33478
    A1        1.87540   0.00048  -0.00223   0.01409   0.01171   1.88711
    A2        1.87578   0.00079  -0.00281   0.01568   0.01275   1.88853
    A3        1.94458  -0.00061   0.00253  -0.01461  -0.01206   1.93252
    A4        1.87581   0.00077  -0.00280   0.01565   0.01275   1.88855
    A5        1.94409  -0.00055   0.00230  -0.01342  -0.01110   1.93299
    A6        1.94461  -0.00074   0.00241  -0.01446  -0.01204   1.93257
    A7        0.64302  -0.00052   0.00290  -0.01273  -0.00979   0.63324
    A8        0.64312  -0.00046   0.00277  -0.01242  -0.00960   0.63352
    A9        0.64314  -0.00046   0.00274  -0.01234  -0.00955   0.63359
   A10        3.14182   0.00001   0.00012  -0.00052  -0.00040   3.14142
   A11        3.14116   0.00009  -0.00009   0.00072   0.00063   3.14179
    D1        2.01391   0.00133  -0.00524   0.03194   0.02688   2.04079
    D2       -2.09394   0.00019  -0.00049   0.00112   0.00066  -2.09328
    D3        2.09477   0.00008  -0.00017   0.00017   0.00001   2.09479
    D4       -2.09447  -0.00010   0.00032  -0.00095  -0.00064  -2.09512
    D5        0.55521   0.00008   0.00000  -0.00049  -0.00047   0.55474
    D6       -0.55506   0.00012  -0.00042   0.00166   0.00124  -0.55382
    D7        0.55499  -0.00011   0.00043  -0.00167  -0.00124   0.55375
         Item               Value     Threshold  Converged?
 Maximum Force            0.016012     0.000450     NO 
 RMS     Force            0.003259     0.000300     NO 
 Maximum Displacement     0.082916     0.001800     NO 
 RMS     Displacement     0.018907     0.001200     NO 
 Predicted change in Energy=-6.631508D-04
 GradGradGradGradGradGradGradGradGradGradGradGradGradGradGradGradGradGrad

                          Input orientation:                          
 ---------------------------------------------------------------------
 Center     Atomic      Atomic             Coordinates (Angstroms)
 Number     Number       Type             X           Y           Z
 ---------------------------------------------------------------------
      1          6           0        1.443800   -2.115142   -0.000099
      2          1           0        1.828075   -1.667127    0.910892
      3          1           0        1.828332   -3.128262   -0.066465
      4          1           0        1.828031   -1.550579   -0.843928
      5         35           0       -0.477431   -2.114867    0.000040
      6         17           0        4.462249   -2.114851   -0.000091
 ---------------------------------------------------------------------
                    Distance matrix (angstroms):
                    1          2          3          4          5
     1  C    0.000000
     2  H    1.085490   0.000000
     3  H    1.085671   1.757880   0.000000
     4  H    1.085548   1.758686   1.758844   0.000000
     5  Br   1.921231   2.519024   2.519511   2.519099   0.000000
     6  Cl   3.018450   2.822981   2.822929   2.823042   4.939680
                    6
     6  Cl   0.000000
 Stoichiometry    CH3BrCl(1-)
 Framework group  C1[X(CH3BrCl)]
 Deg. of freedom    12
 Full point group                 C1      NOp   1
 Largest Abelian subgroup         C1      NOp   1
 Largest concise Abelian subgroup C1      NOp   1
                         Standard orientation:                         
 ---------------------------------------------------------------------
 Center     Atomic      Atomic             Coordinates (Angstroms)
 Number     Number       Type             X           Y           Z
 ---------------------------------------------------------------------
      1          6           0       -0.242236   -0.000072    0.000235
      2          1           0       -0.626487   -0.439336   -0.915018
      3          1           0       -0.626772   -0.574077    0.837691
      4          1           0       -0.626488    1.012215    0.077947
      5         35           0        1.678995    0.000025   -0.000033
      6         17           0       -3.260685    0.000045   -0.000052
 ---------------------------------------------------------------------
 Rotational constants (GHZ):         162.1667464           0.8475808           0.8475778
 Standard basis: STO-3G (5D, 7F)
 There are    36 symmetry adapted cartesian basis functions of A   symmetry.
 There are    35 symmetry adapted basis functions of A   symmetry.
    35 basis functions,   108 primitive gaussians,    36 cartesian basis functions
    31 alpha electrons       31 beta electrons
       nuclear repulsion energy       180.7580231194 Hartrees.
 NAtoms=    6 NActive=    6 NUniq=    6 SFac= 1.00D+00 NAtFMM=   60 NAOKFM=F Big=F
 Integral buffers will be    131072 words long.
 Raffenetti 1 integral format.
 Two-electron integral symmetry is turned on.
 One-electron integrals computed using PRISM.
 NBasis=    35 RedAO= T EigKep=  2.33D-01  NBF=    35
 NBsUse=    35 1.00D-06 EigRej= -1.00D+00 NBFU=    35
 Initial guess from the checkpoint file:  "C:\Users\chemistry\Documents\Gruppe H\inputOptimierung2.chk"
 B after Tr=     0.000000    0.000000    0.000000
         Rot=    0.998479   -0.055140    0.000001    0.000001 Ang=  -6.32 deg.
 ExpMin= 1.69D-01 ExpMax= 2.63D+03 ExpMxC= 2.63D+03 IAcc=3 IRadAn=         5 AccDes= 0.00D+00
 Harris functional with IExCor=  205 and IRadAn=       5 diagonalized for initial guess.
 HarFok:  IExCor=  205 AccDes= 0.00D+00 IRadAn=         5 IDoV= 1 UseB2=F ITyADJ=14
 ICtDFT=  3500011 ScaDFX=  1.000000  1.000000  1.000000  1.000000
 FoFCou: FMM=F IPFlag=           0 FMFlag=      100000 FMFlg1=           0
         NFxFlg=           0 DoJE=T BraDBF=F KetDBF=T FulRan=T
         wScrn=  0.000000 ICntrl=       500 IOpCl=  0 I1Cent=   200000004 NGrid=           0
         NMat0=    1 NMatS0=      1 NMatT0=    0 NMatD0=    1 NMtDS0=    0 NMtDT0=    0
 Petite list used in FoFCou.
 Keep R1 ints in memory in canonical form, NReq=1031126.
 Requested convergence on RMS density matrix=1.00D-08 within 128 cycles.
 Requested convergence on MAX density matrix=1.00D-06.
 Requested convergence on             energy=1.00D-06.
 No special actions if energy rises.
 SCF Done:  E(RHF) =  -3038.30394152     A.U. after    8 cycles
            NFock=  8  Conv=0.19D-08     -V/T= 2.0019
 Calling FoFJK, ICntrl=      2127 FMM=F ISym2X=0 I1Cent= 0 IOpClX= 0 NMat=1 NMatS=1 NMatT=0.
 ***** Axes restored to original set *****
 -------------------------------------------------------------------
 Center     Atomic                   Forces (Hartrees/Bohr)
 Number     Number              X              Y              Z
 -------------------------------------------------------------------
      1        6           0.005301394   -0.000167275    0.000086792
      2        1          -0.001802742    0.000291897    0.000340050
      3        1          -0.001900618   -0.000284588   -0.000135862
      4        1          -0.001777429    0.000185839   -0.000286962
      5       35          -0.003471739   -0.000023988   -0.000005508
      6       17           0.003651135   -0.000001886    0.000001491
 -------------------------------------------------------------------
 Cartesian Forces:  Max     0.005301394 RMS     0.001885078

 GradGradGradGradGradGradGradGradGradGradGradGradGradGradGradGradGradGrad
 Berny optimization.
 Using GEDIIS/GDIIS optimizer.
 FormGI is forming the generalized inverse of G from B-inverse, IUseBI=4.
 Internal  Forces:  Max     0.003471735 RMS     0.000831725
 Search for a local minimum.
 Step number   5 out of a maximum of   36
 All quantities printed in internal units (Hartrees-Bohrs-Radians)
 Mixed Optimization -- En-DIIS/RFO-DIIS
 Update second derivatives using D2CorX and points    3    4    5
 DE= -9.37D-04 DEPred=-6.63D-04 R= 1.41D+00
 TightC=F SS=  1.41D+00  RLast= 1.93D-01 DXNew= 1.4270D+00 5.7909D-01
 Trust test= 1.41D+00 RLast= 1.93D-01 DXMaxT set to 8.49D-01
 ITU=  1  1  0  1  0
 Use linear search instead of GDIIS.
     Eigenvalues ---    0.00493   0.02201   0.02247   0.04445   0.04906
     Eigenvalues ---    0.06822   0.10544   0.10816   0.31324   0.33111
     Eigenvalues ---    0.33620   0.35153
 RFO step:  Lambda=-5.32798707D-04 EMin= 4.93209088D-03
 Quartic linear search produced a step of  0.80651.
 Iteration  1 RMS(Cart)=  0.03735886 RMS(Int)=  0.00296187
 Iteration  2 RMS(Cart)=  0.00137463 RMS(Int)=  0.00033910
 Iteration  3 RMS(Cart)=  0.00000047 RMS(Int)=  0.00033910
 Variable       Old X    -DE/DX   Delta X   Delta X   Delta X     New X
                                 (Linear)    (Quad)   (Total)
    R1        2.05128  -0.00020  -0.00172   0.00187  -0.00007   2.05121
    R2        2.05162  -0.00036  -0.00136   0.00096  -0.00067   2.05095
    R3        2.05139  -0.00026  -0.00169   0.00157  -0.00042   2.05097
    R4        3.63060   0.00347   0.03412  -0.02360   0.01052   3.64112
    R5        5.70404   0.00041   0.06221   0.13624   0.19831   5.90235
    R6        5.33466   0.00113   0.07727   0.13257   0.20998   5.54464
    R7        5.33456   0.00114   0.07752   0.13219   0.20986   5.54442
    R8        5.33478   0.00115   0.07740   0.13251   0.21006   5.54484
    A1        1.88711   0.00032   0.00944   0.00445   0.01349   1.90060
    A2        1.88853   0.00041   0.01029   0.00186   0.01179   1.90032
    A3        1.93252  -0.00033  -0.00972  -0.00209  -0.01169   1.92083
    A4        1.88855   0.00043   0.01028   0.00179   0.01171   1.90026
    A5        1.93299  -0.00039  -0.00895  -0.00356  -0.01238   1.92061
    A6        1.93257  -0.00039  -0.00971  -0.00209  -0.01171   1.92086
    A7        0.63324  -0.00015  -0.00789  -0.01475  -0.02182   0.61142
    A8        0.63352  -0.00012  -0.00774  -0.01530  -0.02219   0.61134
    A9        0.63359  -0.00014  -0.00770  -0.01544  -0.02229   0.61129
   A10        3.14142   0.00003  -0.00032   0.00056   0.00024   3.14166
   A11        3.14179  -0.00001   0.00051  -0.00100  -0.00048   3.14131
    D1        2.04079   0.00083   0.02168   0.00721   0.02913   2.06992
    D2       -2.09328   0.00007   0.00053  -0.00188  -0.00131  -2.09459
    D3        2.09479   0.00004   0.00001  -0.00041  -0.00038   2.09441
    D4       -2.09512  -0.00003  -0.00052   0.00147   0.00093  -2.09419
    D5        0.55474   0.00000  -0.00038  -0.00283  -0.00305   0.55170
    D6       -0.55382   0.00004   0.00100   0.00099   0.00187  -0.55194
    D7        0.55375  -0.00003  -0.00100  -0.00088  -0.00176   0.55198
         Item               Value     Threshold  Converged?
 Maximum Force            0.003472     0.000450     NO 
 RMS     Force            0.000832     0.000300     NO 
 Maximum Displacement     0.178542     0.001800     NO 
 RMS     Displacement     0.038677     0.001200     NO 
 Predicted change in Energy=-4.228230D-04
 GradGradGradGradGradGradGradGradGradGradGradGradGradGradGradGradGradGrad

                          Input orientation:                          
 ---------------------------------------------------------------------
 Center     Atomic      Atomic             Coordinates (Angstroms)
 Number     Number       Type             X           Y           Z
 ---------------------------------------------------------------------
      1          6           0        1.433341   -2.115074    0.000066
      2          1           0        1.805533   -1.664474    0.914748
      3          1           0        1.805507   -3.132355   -0.067335
      4          1           0        1.805402   -1.548185   -0.847368
      5         35           0       -0.493456   -2.115472    0.000164
      6         17           0        4.556730   -2.115269    0.000075
 ---------------------------------------------------------------------
                    Distance matrix (angstroms):
                    1          2          3          4          5
     1  C    0.000000
     2  H    1.085455   0.000000
     3  H    1.085316   1.766115   0.000000
     4  H    1.085327   1.765949   1.765799   0.000000
     5  Br   1.926797   2.514998   2.514724   2.514930   0.000000
     6  Cl   3.123389   2.934098   2.933980   2.934203   5.050186
                    6
     6  Cl   0.000000
 Stoichiometry    CH3BrCl(1-)
 Framework group  C1[X(CH3BrCl)]
 Deg. of freedom    12
 Full point group                 C1      NOp   1
 Largest Abelian subgroup         C1      NOp   1
 Largest concise Abelian subgroup C1      NOp   1
                         Standard orientation:                         
 ---------------------------------------------------------------------
 Center     Atomic      Atomic             Coordinates (Angstroms)
 Number     Number       Type             X           Y           Z
 ---------------------------------------------------------------------
      1          6           0       -0.216785   -0.000141   -0.000235
      2          1           0       -0.588980   -0.981015    0.278279
      3          1           0       -0.588907    0.731600    0.709687
      4          1           0       -0.588886    0.248981   -0.988878
      5         35           0        1.710012    0.000021    0.000039
      6         17           0       -3.340174    0.000032    0.000056
 ---------------------------------------------------------------------
 Rotational constants (GHZ):         160.7951683           0.8116961           0.8116953
 Standard basis: STO-3G (5D, 7F)
 There are    36 symmetry adapted cartesian basis functions of A   symmetry.
 There are    35 symmetry adapted basis functions of A   symmetry.
    35 basis functions,   108 primitive gaussians,    36 cartesian basis functions
    31 alpha electrons       31 beta electrons
       nuclear repulsion energy       178.2691122794 Hartrees.
 NAtoms=    6 NActive=    6 NUniq=    6 SFac= 1.00D+00 NAtFMM=   60 NAOKFM=F Big=F
 Integral buffers will be    131072 words long.
 Raffenetti 1 integral format.
 Two-electron integral symmetry is turned on.
 One-electron integrals computed using PRISM.
 NBasis=    35 RedAO= T EigKep=  2.34D-01  NBF=    35
 NBsUse=    35 1.00D-06 EigRej= -1.00D+00 NBFU=    35
 Initial guess from the checkpoint file:  "C:\Users\chemistry\Documents\Gruppe H\inputOptimierung2.chk"
 B after Tr=     0.000000    0.000000    0.000000
         Rot=    0.764631    0.644468   -0.000001    0.000000 Ang=  80.25 deg.
 ExpMin= 1.69D-01 ExpMax= 2.63D+03 ExpMxC= 2.63D+03 IAcc=3 IRadAn=         5 AccDes= 0.00D+00
 Harris functional with IExCor=  205 and IRadAn=       5 diagonalized for initial guess.
 HarFok:  IExCor=  205 AccDes= 0.00D+00 IRadAn=         5 IDoV= 1 UseB2=F ITyADJ=14
 ICtDFT=  3500011 ScaDFX=  1.000000  1.000000  1.000000  1.000000
 FoFCou: FMM=F IPFlag=           0 FMFlag=      100000 FMFlg1=           0
         NFxFlg=           0 DoJE=T BraDBF=F KetDBF=T FulRan=T
         wScrn=  0.000000 ICntrl=       500 IOpCl=  0 I1Cent=   200000004 NGrid=           0
         NMat0=    1 NMatS0=      1 NMatT0=    0 NMatD0=    1 NMtDS0=    0 NMtDT0=    0
 Petite list used in FoFCou.
 Keep R1 ints in memory in canonical form, NReq=1031092.
 Requested convergence on RMS density matrix=1.00D-08 within 128 cycles.
 Requested convergence on MAX density matrix=1.00D-06.
 Requested convergence on             energy=1.00D-06.
 No special actions if energy rises.
 SCF Done:  E(RHF) =  -3038.30447258     A.U. after    8 cycles
            NFock=  8  Conv=0.27D-08     -V/T= 2.0019
 Calling FoFJK, ICntrl=      2127 FMM=F ISym2X=0 I1Cent= 0 IOpClX= 0 NMat=1 NMatS=1 NMatT=0.
 ***** Axes restored to original set *****
 -------------------------------------------------------------------
 Center     Atomic                   Forces (Hartrees/Bohr)
 Number     Number              X              Y              Z
 -------------------------------------------------------------------
      1        6          -0.001468591    0.000047389    0.000068473
      2        1           0.000151716   -0.000039413   -0.000030364
      3        1           0.000214188   -0.000072201    0.000023879
      4        1           0.000177010    0.000048933   -0.000061169
      5       35          -0.000175988    0.000014605   -0.000000407
      6       17           0.001101665    0.000000688   -0.000000412
 -------------------------------------------------------------------
 Cartesian Forces:  Max     0.001468591 RMS     0.000442415

 GradGradGradGradGradGradGradGradGradGradGradGradGradGradGradGradGradGrad
 Berny optimization.
 Using GEDIIS/GDIIS optimizer.
 FormGI is forming the generalized inverse of G from B-inverse, IUseBI=4.
 Internal  Forces:  Max     0.000586297 RMS     0.000184976
 Search for a local minimum.
 Step number   6 out of a maximum of   36
 All quantities printed in internal units (Hartrees-Bohrs-Radians)
 Mixed Optimization -- En-DIIS/RFO-DIIS
 Swapping is turned off.
 Update second derivatives using D2CorX and points    5    6
 DE= -5.31D-04 DEPred=-4.23D-04 R= 1.26D+00
 TightC=F SS=  1.41D+00  RLast= 4.18D-01 DXNew= 1.4270D+00 1.2547D+00
 Trust test= 1.26D+00 RLast= 4.18D-01 DXMaxT set to 1.25D+00
 ITU=  1  1  1  0  1  0
     Eigenvalues ---    0.00330   0.02201   0.02245   0.04569   0.05008
     Eigenvalues ---    0.07270   0.10609   0.10835   0.31368   0.33169
     Eigenvalues ---    0.33664   0.35350
 En-DIIS/RFO-DIIS/Sim-DIIS IScMMF=       -3 using points:     6    5
 RFO step:  Lambda=-9.65378011D-05.
 DidBck=F Rises=F RFO-DIIS coefs:    1.39661   -0.39661
 Iteration  1 RMS(Cart)=  0.01565659 RMS(Int)=  0.00015758
 Iteration  2 RMS(Cart)=  0.00001605 RMS(Int)=  0.00015660
 Iteration  3 RMS(Cart)=  0.00000000 RMS(Int)=  0.00015660
 Variable       Old X    -DE/DX   Delta X   Delta X   Delta X     New X
                                 (Linear)    (Quad)   (Total)
    R1        2.05121   0.00002  -0.00003   0.00034   0.00020   2.05142
    R2        2.05095   0.00015  -0.00027   0.00103   0.00063   2.05158
    R3        2.05097   0.00014  -0.00016   0.00087   0.00056   2.05153
    R4        3.64112   0.00018   0.00417  -0.00601  -0.00184   3.63928
    R5        5.90235   0.00059   0.07865   0.01063   0.08919   5.99154
    R6        5.54464   0.00019   0.08328  -0.00198   0.08137   5.62601
    R7        5.54442   0.00018   0.08323  -0.00185   0.08146   5.62588
    R8        5.54484   0.00017   0.08331  -0.00198   0.08141   5.62625
    A1        1.90060  -0.00014   0.00535  -0.00664  -0.00140   1.89920
    A2        1.90032  -0.00020   0.00467  -0.00563  -0.00107   1.89925
    A3        1.92083   0.00016  -0.00464   0.00559   0.00100   1.92183
    A4        1.90026  -0.00021   0.00464  -0.00551  -0.00098   1.89928
    A5        1.92061   0.00019  -0.00491   0.00629   0.00143   1.92203
    A6        1.92086   0.00019  -0.00464   0.00553   0.00094   1.92180
    A7        0.61142  -0.00003  -0.00865  -0.00107  -0.00931   0.60211
    A8        0.61134  -0.00004  -0.00880  -0.00086  -0.00924   0.60209
    A9        0.61129  -0.00002  -0.00884  -0.00073  -0.00916   0.60213
   A10        3.14166  -0.00002   0.00010  -0.00024  -0.00014   3.14152
   A11        3.14131   0.00000  -0.00019   0.00051   0.00032   3.14163
    D1        2.06992  -0.00040   0.01155  -0.01441  -0.00285   2.06707
    D2       -2.09459  -0.00005  -0.00052   0.00071   0.00019  -2.09440
    D3        2.09441  -0.00003  -0.00015   0.00006  -0.00009   2.09431
    D4       -2.09419   0.00002   0.00037  -0.00065  -0.00029  -2.09448
    D5        0.55170  -0.00001  -0.00121   0.00048  -0.00067   0.55103
    D6       -0.55194  -0.00003   0.00074   0.00021   0.00090  -0.55105
    D7        0.55198   0.00001  -0.00070  -0.00036  -0.00100   0.55098
         Item               Value     Threshold  Converged?
 Maximum Force            0.000586     0.000450     NO 
 RMS     Force            0.000185     0.000300     YES
 Maximum Displacement     0.072856     0.001800     NO 
 RMS     Displacement     0.015659     0.001200     NO 
 Predicted change in Energy=-4.953370D-05
 GradGradGradGradGradGradGradGradGradGradGradGradGradGradGradGradGradGrad

                          Input orientation:                          
 ---------------------------------------------------------------------
 Center     Atomic      Atomic             Coordinates (Angstroms)
 Number     Number       Type             X           Y           Z
 ---------------------------------------------------------------------
      1          6           0        1.424698   -2.115178    0.000055
      2          1           0        1.798050   -1.664814    0.914509
      3          1           0        1.798200   -3.132338   -0.067168
      4          1           0        1.797948   -1.548306   -0.847247
      5         35           0       -0.501124   -2.115132    0.000151
      6         17           0        4.595283   -2.115060    0.000050
 ---------------------------------------------------------------------
                    Distance matrix (angstroms):
                    1          2          3          4          5
     1  C    0.000000
     2  H    1.085563   0.000000
     3  H    1.085651   1.765593   0.000000
     4  H    1.085623   1.765604   1.765695   0.000000
     5  Br   1.925823   2.514963   2.515181   2.514977   0.000000
     6  Cl   3.170585   2.977158   2.977087   2.977282   5.096408
                    6
     6  Cl   0.000000
 Stoichiometry    CH3BrCl(1-)
 Framework group  C1[X(CH3BrCl)]
 Deg. of freedom    12
 Full point group                 C1      NOp   1
 Largest Abelian subgroup         C1      NOp   1
 Largest concise Abelian subgroup C1      NOp   1
                         Standard orientation:                         
 ---------------------------------------------------------------------
 Center     Atomic      Atomic             Coordinates (Angstroms)
 Number     Number       Type             X           Y           Z
 ---------------------------------------------------------------------
      1          6           0       -0.203012    0.000031   -0.000073
      2          1           0       -0.576351    0.050298    1.018032
      3          1           0       -0.576503    0.856633   -0.552682
      4          1           0       -0.576286   -0.906913   -0.465581
      5         35           0        1.722810   -0.000003    0.000011
      6         17           0       -3.373597   -0.000007    0.000017
 ---------------------------------------------------------------------
 Rotational constants (GHZ):         160.8541821           0.7973647           0.7973644
 Standard basis: STO-3G (5D, 7F)
 There are    36 symmetry adapted cartesian basis functions of A   symmetry.
 There are    35 symmetry adapted basis functions of A   symmetry.
    35 basis functions,   108 primitive gaussians,    36 cartesian basis functions
    31 alpha electrons       31 beta electrons
       nuclear repulsion energy       177.3393017930 Hartrees.
 NAtoms=    6 NActive=    6 NUniq=    6 SFac= 1.00D+00 NAtFMM=   60 NAOKFM=F Big=F
 Integral buffers will be    131072 words long.
 Raffenetti 1 integral format.
 Two-electron integral symmetry is turned on.
 One-electron integrals computed using PRISM.
 NBasis=    35 RedAO= T EigKep=  2.34D-01  NBF=    35
 NBsUse=    35 1.00D-06 EigRej= -1.00D+00 NBFU=    35
 Initial guess from the checkpoint file:  "C:\Users\chemistry\Documents\Gruppe H\inputOptimierung2.chk"
 B after Tr=     0.000000    0.000000    0.000000
         Rot=    0.782775    0.622304    0.000000   -0.000001 Ang=  76.97 deg.
 ExpMin= 1.69D-01 ExpMax= 2.63D+03 ExpMxC= 2.63D+03 IAcc=3 IRadAn=         5 AccDes= 0.00D+00
 Harris functional with IExCor=  205 and IRadAn=       5 diagonalized for initial guess.
 HarFok:  IExCor=  205 AccDes= 0.00D+00 IRadAn=         5 IDoV= 1 UseB2=F ITyADJ=14
 ICtDFT=  3500011 ScaDFX=  1.000000  1.000000  1.000000  1.000000
 FoFCou: FMM=F IPFlag=           0 FMFlag=      100000 FMFlg1=           0
         NFxFlg=           0 DoJE=T BraDBF=F KetDBF=T FulRan=T
         wScrn=  0.000000 ICntrl=       500 IOpCl=  0 I1Cent=   200000004 NGrid=           0
         NMat0=    1 NMatS0=      1 NMatT0=    0 NMatD0=    1 NMtDS0=    0 NMtDT0=    0
 Petite list used in FoFCou.
 Keep R1 ints in memory in canonical form, NReq=1031015.
 Requested convergence on RMS density matrix=1.00D-08 within 128 cycles.
 Requested convergence on MAX density matrix=1.00D-06.
 Requested convergence on             energy=1.00D-06.
 No special actions if energy rises.
 SCF Done:  E(RHF) =  -3038.30453791     A.U. after    7 cycles
            NFock=  7  Conv=0.74D-08     -V/T= 2.0019
 Calling FoFJK, ICntrl=      2127 FMM=F ISym2X=0 I1Cent= 0 IOpClX= 0 NMat=1 NMatS=1 NMatT=0.
 ***** Axes restored to original set *****
 -------------------------------------------------------------------
 Center     Atomic                   Forces (Hartrees/Bohr)
 Number     Number              X              Y              Z
 -------------------------------------------------------------------
      1        6          -0.000697974   -0.000026783   -0.000041807
      2        1           0.000071027    0.000021926    0.000037958
      3        1           0.000026721    0.000028361   -0.000005214
      4        1           0.000057566   -0.000010564    0.000008285
      5       35           0.000172871   -0.000012497    0.000000665
      6       17           0.000369789   -0.000000444    0.000000113
 -------------------------------------------------------------------
 Cartesian Forces:  Max     0.000697974 RMS     0.000192704

 GradGradGradGradGradGradGradGradGradGradGradGradGradGradGradGradGradGrad
 Berny optimization.
 Using GEDIIS/GDIIS optimizer.
 FormGI is forming the generalized inverse of G from B-inverse, IUseBI=4.
 Internal  Forces:  Max     0.000194384 RMS     0.000069369
 Search for a local minimum.
 Step number   7 out of a maximum of   36
 All quantities printed in internal units (Hartrees-Bohrs-Radians)
 Mixed Optimization -- En-DIIS/RFO-DIIS
 Swapping is turned off.
 Update second derivatives using D2CorX and points    5    6    7
 DE= -6.53D-05 DEPred=-4.95D-05 R= 1.32D+00
 TightC=F SS=  1.41D+00  RLast= 1.68D-01 DXNew= 2.1101D+00 5.0305D-01
 Trust test= 1.32D+00 RLast= 1.68D-01 DXMaxT set to 1.25D+00
 ITU=  1  1  1  1  0  1  0
     Eigenvalues ---    0.00222   0.02199   0.02243   0.04555   0.04995
     Eigenvalues ---    0.07229   0.10602   0.10832   0.31648   0.33182
     Eigenvalues ---    0.33690   0.35468
 En-DIIS/RFO-DIIS/Sim-DIIS IScMMF=       -3 using points:     7    6    5
 RFO step:  Lambda=-1.75759753D-05.
 DidBck=F Rises=F RFO-DIIS coefs:    1.53900   -0.54494    0.00593
 Iteration  1 RMS(Cart)=  0.00817454 RMS(Int)=  0.00003475
 Iteration  2 RMS(Cart)=  0.00000444 RMS(Int)=  0.00003441
 Iteration  3 RMS(Cart)=  0.00000000 RMS(Int)=  0.00003441
 Variable       Old X    -DE/DX   Delta X   Delta X   Delta X     New X
                                 (Linear)    (Quad)   (Total)
    R1        2.05142   0.00006   0.00011   0.00023   0.00031   2.05173
    R2        2.05158  -0.00001   0.00035  -0.00032   0.00000   2.05159
    R3        2.05153   0.00001   0.00030  -0.00020   0.00007   2.05160
    R4        3.63928  -0.00017  -0.00105  -0.00106  -0.00212   3.63716
    R5        5.99154   0.00019   0.04690  -0.00002   0.04685   6.03839
    R6        5.62601   0.00006   0.04261   0.00004   0.04267   5.66869
    R7        5.62588   0.00007   0.04266  -0.00007   0.04261   5.66849
    R8        5.62625   0.00005   0.04263   0.00004   0.04269   5.66894
    A1        1.89920  -0.00004  -0.00083   0.00021  -0.00063   1.89857
    A2        1.89925  -0.00008  -0.00064  -0.00003  -0.00069   1.89856
    A3        1.92183   0.00006   0.00061   0.00015   0.00076   1.92260
    A4        1.89928  -0.00007  -0.00060  -0.00015  -0.00076   1.89853
    A5        1.92203   0.00004   0.00084  -0.00041   0.00044   1.92247
    A6        1.92180   0.00008   0.00057   0.00023   0.00082   1.92261
    A7        0.60211  -0.00001  -0.00489   0.00004  -0.00476   0.59735
    A8        0.60209  -0.00001  -0.00485  -0.00001  -0.00477   0.59732
    A9        0.60213  -0.00002  -0.00481  -0.00011  -0.00483   0.59730
   A10        3.14152   0.00000  -0.00008   0.00018   0.00010   3.14162
   A11        3.14163  -0.00002   0.00017  -0.00043  -0.00026   3.14137
    D1        2.06707  -0.00013  -0.00171   0.00016  -0.00158   2.06549
    D2       -2.09440  -0.00002   0.00011  -0.00010   0.00001  -2.09438
    D3        2.09431  -0.00001  -0.00005   0.00020   0.00015   2.09446
    D4       -2.09448   0.00001  -0.00016   0.00030   0.00014  -2.09434
    D5        0.55103  -0.00003  -0.00034  -0.00022  -0.00055   0.55048
    D6       -0.55105   0.00000   0.00047   0.00002   0.00048  -0.55056
    D7        0.55098   0.00001  -0.00053   0.00011  -0.00041   0.55058
         Item               Value     Threshold  Converged?
 Maximum Force            0.000194     0.000450     YES
 RMS     Force            0.000069     0.000300     YES
 Maximum Displacement     0.038018     0.001800     NO 
 RMS     Displacement     0.008175     0.001200     NO 
 Predicted change in Energy=-8.850033D-06
 GradGradGradGradGradGradGradGradGradGradGradGradGradGradGradGradGradGrad

                          Input orientation:                          
 ---------------------------------------------------------------------
 Center     Atomic      Atomic             Coordinates (Angstroms)
 Number     Number       Type             X           Y           Z
 ---------------------------------------------------------------------
      1          6           0        1.420025   -2.115083    0.000042
      2          1           0        1.794140   -1.664758    0.914401
      3          1           0        1.794158   -3.132011   -0.067217
      4          1           0        1.794010   -1.548375   -0.847095
      5         35           0       -0.504679   -2.115387    0.000156
      6         17           0        4.615401   -2.115214    0.000063
 ---------------------------------------------------------------------
                    Distance matrix (angstroms):
                    1          2          3          4          5
     1  C    0.000000
     2  H    1.085729   0.000000
     3  H    1.085653   1.765334   0.000000
     4  H    1.085662   1.765336   1.765251   0.000000
     5  Br   1.924703   2.514653   2.514501   2.514618   0.000000
     6  Cl   3.195377   2.999739   2.999635   2.999872   5.120080
                    6
     6  Cl   0.000000
 Stoichiometry    CH3BrCl(1-)
 Framework group  C1[X(CH3BrCl)]
 Deg. of freedom    12
 Full point group                 C1      NOp   1
 Largest Abelian subgroup         C1      NOp   1
 Largest concise Abelian subgroup C1      NOp   1
                         Standard orientation:                         
 ---------------------------------------------------------------------
 Center     Atomic      Atomic             Coordinates (Angstroms)
 Number     Number       Type             X           Y           Z
 ---------------------------------------------------------------------
      1          6           0       -0.195426    0.000026    0.000211
      2          1           0       -0.569541    1.019191    0.012403
      3          1           0       -0.569524   -0.499009   -0.888415
      4          1           0       -0.569447   -0.520089    0.876710
      5         35           0        1.729277   -0.000004   -0.000034
      6         17           0       -3.390802   -0.000007   -0.000046
 ---------------------------------------------------------------------
 Rotational constants (GHZ):         160.9131458           0.7901755           0.7901753
 Standard basis: STO-3G (5D, 7F)
 There are    36 symmetry adapted cartesian basis functions of A   symmetry.
 There are    35 symmetry adapted basis functions of A   symmetry.
    35 basis functions,   108 primitive gaussians,    36 cartesian basis functions
    31 alpha electrons       31 beta electrons
       nuclear repulsion energy       176.8904882201 Hartrees.
 NAtoms=    6 NActive=    6 NUniq=    6 SFac= 1.00D+00 NAtFMM=   60 NAOKFM=F Big=F
 Integral buffers will be    131072 words long.
 Raffenetti 1 integral format.
 Two-electron integral symmetry is turned on.
 One-electron integrals computed using PRISM.
 NBasis=    35 RedAO= T EigKep=  2.34D-01  NBF=    35
 NBsUse=    35 1.00D-06 EigRej= -1.00D+00 NBFU=    35
 Initial guess from the checkpoint file:  "C:\Users\chemistry\Documents\Gruppe H\inputOptimierung2.chk"
 B after Tr=     0.000000    0.000000    0.000000
         Rot=    0.728442    0.685107    0.000001    0.000000 Ang=  86.49 deg.
 ExpMin= 1.69D-01 ExpMax= 2.63D+03 ExpMxC= 2.63D+03 IAcc=3 IRadAn=         5 AccDes= 0.00D+00
 Harris functional with IExCor=  205 and IRadAn=       5 diagonalized for initial guess.
 HarFok:  IExCor=  205 AccDes= 0.00D+00 IRadAn=         5 IDoV= 1 UseB2=F ITyADJ=14
 ICtDFT=  3500011 ScaDFX=  1.000000  1.000000  1.000000  1.000000
 FoFCou: FMM=F IPFlag=           0 FMFlag=      100000 FMFlg1=           0
         NFxFlg=           0 DoJE=T BraDBF=F KetDBF=T FulRan=T
         wScrn=  0.000000 ICntrl=       500 IOpCl=  0 I1Cent=   200000004 NGrid=           0
         NMat0=    1 NMatS0=      1 NMatT0=    0 NMatD0=    1 NMtDS0=    0 NMtDT0=    0
 Petite list used in FoFCou.
 Keep R1 ints in memory in canonical form, NReq=1031015.
 Requested convergence on RMS density matrix=1.00D-08 within 128 cycles.
 Requested convergence on MAX density matrix=1.00D-06.
 Requested convergence on             energy=1.00D-06.
 No special actions if energy rises.
 SCF Done:  E(RHF) =  -3038.30454789     A.U. after    7 cycles
            NFock=  7  Conv=0.50D-08     -V/T= 2.0019
[...]
 
                     E (Thermal)             CV                S
                      KCal/Mol        Cal/Mol-Kelvin    Cal/Mol-Kelvin
 Total                   30.104              9.236             70.221
 Electronic               0.000              0.000              0.000
 Translational            0.889              2.981             40.475
 Rotational               0.889              2.981             25.576
 Vibrational             28.327              3.275              4.169
 Vibration     1          0.600              1.961              3.819
                       Q            Log10(Q)             Ln(Q)
 Total Bot       0.700560D-07         -7.154555        -16.473971
 Total V=0       0.156207D+14         13.193702         30.379621
 Vib (Bot)       0.140419D-19        -19.852575        -45.712242
 Vib (Bot)    1  0.247991D+01          0.394436          0.908222
 Vib (V=0)       0.313099D+01          0.495682          1.141349
 Vib (V=0)    1  0.302981D+01          0.481416          1.108501
 Electronic      0.100000D+01          0.000000          0.000000
 Translational   0.575290D+08          7.759887         17.867800
 Rotational      0.867227D+05          4.938133         11.370471
 ***** Axes restored to original set *****
 -------------------------------------------------------------------
 Center     Atomic                   Forces (Hartrees/Bohr)
 Number     Number              X              Y              Z
 -------------------------------------------------------------------
      1        6          -0.000000875    0.000004036    0.000011111
      2        1          -0.000003062   -0.000002694   -0.000006182
      3        1           0.000004103   -0.000007297    0.000000101
      4        1           0.000000968    0.000004366   -0.000004915
      5       35          -0.000000800    0.000001558   -0.000000115
      6       17          -0.000000334    0.000000031   -0.000000001
 -------------------------------------------------------------------
 Cartesian Forces:  Max     0.000011111 RMS     0.000004169
 FormGI is forming the generalized inverse of G from B-inverse, IUseBI=4.

 GradGradGradGradGradGradGradGradGradGradGradGradGradGradGradGradGradGrad
 Berny optimization.
 Internal  Forces:  Max     0.000007570 RMS     0.000002499
 Search for a local minimum.
 Step number   1 out of a maximum of    2
 All quantities printed in internal units (Hartrees-Bohrs-Radians)
 Second derivative matrix not updated -- analytic derivatives used.
 ITU=  0
     Eigenvalues ---   -0.00012  -0.00012   0.00175   0.04974   0.05773
     Eigenvalues ---    0.07018   0.12698   0.13232   0.31232   0.43757
     Eigenvalues ---    0.45139   0.45665
 Eigenvalue     1 is  -1.21D-04 should be greater than     0.000000 Eigenvector:
                          R6        R7        A10       R8        A11
   1                    0.72131  -0.55561   0.33114  -0.16561  -0.11009
                          D7        D6        A9        A8        D5
   1                   -0.10689  -0.08186   0.03636  -0.02801   0.02360
 Eigenvalue     2 is  -1.19D-04 should be greater than     0.000000 Eigenvector:
                          R8        R7        A11       R6        D5
   1                   -0.73303   0.50591   0.34982   0.22681   0.10921
                          A10       D6        A7        D7        A8
   1                    0.10417   0.07598  -0.03695  -0.03474   0.02554
 Angle between quadratic step and forces=  83.97 degrees.
 Linear search not attempted -- first point.
 Iteration  1 RMS(Cart)=  0.00007653 RMS(Int)=  0.00000000
 Iteration  2 RMS(Cart)=  0.00000000 RMS(Int)=  0.00000000
 Variable       Old X    -DE/DX   Delta X   Delta X   Delta X     New X
                                 (Linear)    (Quad)   (Total)
    R1        2.05172  -0.00001   0.00000  -0.00001  -0.00001   2.05171
    R2        2.05169   0.00001   0.00000   0.00002   0.00002   2.05171
    R3        2.05169   0.00001   0.00000   0.00001   0.00001   2.05171
    R4        3.63700   0.00000   0.00000   0.00000   0.00000   3.63701
    R5        6.04619   0.00000   0.00000  -0.00005  -0.00005   6.04613
    R6        5.67602   0.00000   0.00000  -0.00007  -0.00007   5.67595
    R7        5.67584   0.00000   0.00000  -0.00026  -0.00026   5.67558
    R8        5.67628   0.00000   0.00000   0.00019   0.00019   5.67646
    A1        1.89855   0.00000   0.00000   0.00000   0.00000   1.89855
    A2        1.89856   0.00000   0.00000   0.00000   0.00000   1.89857
    A3        1.92257   0.00000   0.00000  -0.00001  -0.00001   1.92256
    A4        1.89855   0.00000   0.00000   0.00001   0.00001   1.89856
    A5        1.92255   0.00000   0.00000   0.00002   0.00002   1.92257
    A6        1.92256   0.00000   0.00000  -0.00002  -0.00002   1.92255
    A7        0.59656   0.00000   0.00000   0.00002   0.00002   0.59658
    A8        0.59654   0.00000   0.00000  -0.00001  -0.00001   0.59653
    A9        0.59654   0.00000   0.00000   0.00001   0.00001   0.59655
   A10        3.14159   0.00000   0.00000  -0.00002  -0.00002   3.14157
   A11        3.14145   0.00000   0.00000  -0.00011  -0.00011   3.14134
    D1        2.06549   0.00000   0.00000   0.00000   0.00000   2.06549
    D2       -2.09439   0.00000   0.00000  -0.00001  -0.00001  -2.09439
    D3        2.09441   0.00000   0.00000  -0.00001  -0.00001   2.09440
    D4       -2.09439   0.00000   0.00000  -0.00001  -0.00001  -2.09440
    D5        0.55044   0.00000   0.00000  -0.00003  -0.00003   0.55041
    D6       -0.55051   0.00000   0.00000  -0.00004  -0.00004  -0.55054
    D7        0.55049   0.00000   0.00000   0.00000   0.00000   0.55049
         Item               Value     Threshold  Converged?
 Maximum Force            0.000008     0.000450     YES
 RMS     Force            0.000002     0.000300     YES
 Maximum Displacement     0.000177     0.001800     YES
 RMS     Displacement     0.000077     0.001200     YES
 Predicted change in Energy=-2.528833D-10
 Optimization completed.
    -- Stationary point found.
                           ----------------------------
                           !   Optimized Parameters   !
                           ! (Angstroms and Degrees)  !
 --------------------------                            --------------------------
 ! Name  Definition              Value          Derivative Info.                !
 --------------------------------------------------------------------------------
 ! R1    R(1,2)                  1.0857         -DE/DX =    0.0                 !
 ! R2    R(1,3)                  1.0857         -DE/DX =    0.0                 !
 ! R3    R(1,4)                  1.0857         -DE/DX =    0.0                 !
 ! R4    R(1,5)                  1.9246         -DE/DX =    0.0                 !
 ! R5    R(1,6)                  3.1995         -DE/DX =    0.0                 !
 ! R6    R(2,6)                  3.0036         -DE/DX =    0.0                 !
 ! R7    R(3,6)                  3.0035         -DE/DX =    0.0                 !
 ! R8    R(4,6)                  3.0038         -DE/DX =    0.0                 !
 ! A1    A(2,1,3)              108.7791         -DE/DX =    0.0                 !
 ! A2    A(2,1,4)              108.7797         -DE/DX =    0.0                 !
 ! A3    A(2,1,5)              110.155          -DE/DX =    0.0                 !
 ! A4    A(3,1,4)              108.7791         -DE/DX =    0.0                 !
 ! A5    A(3,1,5)              110.1539         -DE/DX =    0.0                 !
 ! A6    A(4,1,5)              110.1548         -DE/DX =    0.0                 !
 ! A7    A(2,6,3)               34.1804         -DE/DX =    0.0                 !
 ! A8    A(2,6,4)               34.1792         -DE/DX =    0.0                 !
 ! A9    A(3,6,4)               34.1794         -DE/DX =    0.0                 !
 ! A10   L(5,1,6,2,-1)         179.9997         -DE/DX =    0.0                 !
 ! A11   L(5,1,6,2,-2)         179.992          -DE/DX =    0.0                 !
 ! D1    D(2,1,4,3)            118.3437         -DE/DX =    0.0                 !
 ! D2    D(2,1,5,3)           -119.9996         -DE/DX =    0.0                 !
 ! D3    D(2,1,5,4)            120.0009         -DE/DX =    0.0                 !
 ! D4    D(3,1,5,4)           -119.9995         -DE/DX =    0.0                 !
 ! D5    D(3,2,6,1)             31.538          -DE/DX =    0.0                 !
 ! D6    D(4,2,6,1)            -31.5416         -DE/DX =    0.0                 !
 ! D7    D(4,3,6,1)             31.5407         -DE/DX =    0.0                 !
 --------------------------------------------------------------------------------
 GradGradGradGradGradGradGradGradGradGradGradGradGradGradGradGradGradGrad


 ----------------------------------------------------------------------

 Electric dipole moment (input orientation):
 (Debye = 10**-18 statcoulomb cm , SI units = C m)
                  (au)            (Debye)         (10**-30 SI)
   Tot        0.539159D+01      0.137041D+02      0.457118D+02
   x         -0.539159D+01     -0.137041D+02     -0.457118D+02
   y         -0.557445D-04     -0.141688D-03     -0.472621D-03
   z          0.528725D-04      0.134388D-03      0.448272D-03

 Dipole polarizability, Alpha (input orientation).
 (esu units = cm**3 , SI units = C**2 m**2 J**-1)
 Alpha(0;0):
               (au)            (10**-24 esu)      (10**-40 SI)
   iso        0.109780D+02      0.162677D+01      0.181003D+01
   aniso      0.155886D+02      0.230999D+01      0.257021D+01
   xx         0.213704D+02      0.316677D+01      0.352350D+01
   yx         0.143641D-02      0.212854D-03      0.236832D-03
   yy         0.578173D+01      0.856764D+00      0.953279D+00
   zx        -0.741604D-03     -0.109894D-03     -0.122274D-03
   zy         0.385704D-04      0.571554D-05      0.635940D-05
   zz         0.578188D+01      0.856787D+00      0.953304D+00

 First dipole hyperpolarizability, Beta (input orientation).
 ||, _|_  parallel and perpendicular components, (z) with respect to z axis,
 vector components x,y,z.  Values do not include the 1/n! factor of 1/2.
 (esu units = statvolt**-1 cm**4 , SI units = C**3 m**3 J**-2)
 Beta(0;0,0):
               (au)            (10**-30 esu)      (10**-50 SI)
   || (z)     0.829604D-04      0.716714D-06      0.266001D-06
   _|_(z)     0.276535D-04      0.238905D-06      0.886670D-07
   x         -0.335072D+03     -0.289476D+01     -0.107436D+01
   y          0.702084D-02      0.606546D-04      0.225113D-04
   z          0.414802D-03      0.358357D-05      0.133001D-05
   ||         0.670145D+02      0.578953D+00      0.214873D+00
   xxx       -0.120040D+03     -0.103705D+01     -0.384891D+00
   xxy        0.693728D-03      0.599327D-05      0.222434D-05
   yxy        0.417474D+01      0.360665D-01      0.133857D-01
   yyy       -0.341395D+01     -0.294938D-01     -0.109463D-01
   xxz        0.967096D-03      0.835496D-05      0.310086D-05
   yxz        0.333470D-03      0.288092D-05      0.106922D-05
   yyz       -0.685411D+00     -0.592142D-02     -0.219768D-02
   zxz        0.417438D+01      0.360634D-01      0.133846D-01
   zyz        0.341559D+01      0.295081D-01      0.109516D-01
   zzz        0.684582D+00      0.591426D-02      0.219502D-02

 ----------------------------------------------------------------------

 Dipole orientation:
     6          0.00015550         -3.99701374         -2.68208216
     1          1.72803913         -3.14601596         -3.38903195
     1         -0.12689225         -5.91882345         -3.38914215
     1         -1.60076580         -2.92603692         -3.38883656
    35          0.00033060         -3.99733771          0.95492240
    17          0.00024442         -3.99717556         -8.72826803

 Electric dipole moment (dipole orientation):
 (Debye = 10**-18 statcoulomb cm , SI units = C m)
                  (au)            (Debye)         (10**-30 SI)
   Tot        0.539159D+01      0.137041D+02      0.457118D+02
   x          0.000000D+00      0.000000D+00      0.000000D+00
   y          0.000000D+00      0.000000D+00      0.000000D+00
   z          0.539159D+01      0.137041D+02      0.457118D+02

 Dipole polarizability, Alpha (dipole orientation).
 (esu units = cm**3 , SI units = C**2 m**2 J**-1)
 Alpha(0;0):
               (au)            (10**-24 esu)      (10**-40 SI)
   iso        0.109780D+02      0.162677D+01      0.181003D+01
   aniso      0.155886D+02      0.230999D+01      0.257021D+01
   xx         0.578188D+01      0.856787D+00      0.953304D+00
   yx         0.385921D-04      0.571876D-05      0.636298D-05
   yy         0.578173D+01      0.856764D+00      0.953279D+00
   zx         0.588749D-03      0.872436D-04      0.970716D-04
   zy        -0.127523D-02     -0.188970D-03     -0.210257D-03
   zz         0.213704D+02      0.316677D+01      0.352350D+01

 First dipole hyperpolarizability, Beta (dipole orientation).
 ||, _|_  parallel and perpendicular components, (z) with respect to z axis,
 vector components x,y,z.  Values do not include the 1/n! factor of 1/2.
 (esu units = statvolt**-1 cm**4 , SI units = C**3 m**3 J**-2)
 Beta(0;0,0):
               (au)            (10**-30 esu)      (10**-50 SI)
   || (z)     0.670145D+02      0.578953D+00      0.214873D+00
   _|_(z)     0.223382D+02      0.192984D+00      0.716242D-01
   x         -0.287118D-02     -0.248048D-04     -0.920605D-05
   y          0.104852D-01      0.905837D-04      0.336192D-04
   z          0.335072D+03      0.289476D+01      0.107436D+01
   ||         0.670145D+02      0.578953D+00      0.214873D+00
   xxx        0.684599D+00      0.591441D-02      0.219507D-02
   xxy        0.341557D+01      0.295079D-01      0.109516D-01
   yxy       -0.685264D+00     -0.592015D-02     -0.219721D-02
   yyy       -0.341410D+01     -0.294951D-01     -0.109468D-01
   xxz       -0.417441D+01     -0.360636D-01     -0.133847D-01
   yxz       -0.292896D-03     -0.253039D-05     -0.939129D-06
   yyz       -0.417471D+01     -0.360663D-01     -0.133856D-01
   zxz       -0.291957D-03     -0.252229D-05     -0.936121D-06
   zyz        0.202116D-02      0.174612D-04      0.648056D-05
   zzz        0.120040D+03      0.103705D+01      0.384891D+00

 ----------------------------------------------------------------------
 Unable to Open any file for archive entry.
 1|1|UNPC-LAPTOP-PP56KN09|Freq|RHF|STO-3G|C1H3Br1Cl1(1-)|CHEMISTRY|01-D
 ec-2022|0||#N Geom=AllCheck Guess=TCheck SCRF=Check GenChk RHF/STO-3G 
 Freq||Title Card Required||-1,1|C,1.4193186248,-2.1151139081,0.0000464
 996|H,1.7934246534,-1.6647908623,0.9144041284|H,1.7934885137,-3.132087
 2487,-0.0671984578|H,1.7933027827,-1.5483647554,-0.8471223779|Br,-0.50
 53012986,-2.1153052462,0.0001580301|Cl,4.618822404,-2.1151664593,0.000
 0621777||Version=EM64W-G16RevC.01|State=1-A|HF=-3038.3045481|RMSD=0.00
 0e+000|RMSF=4.169e-006|ZeroPoint=0.0442384|Thermal=0.0479744|ETot=-303
 8.2565737|HTot=-3038.2556295|GTot=-3038.2889936|Dipole=-5.3915932,-0.0
 000557,0.0000529|DipoleDeriv=0.8532374,0.0000761,-0.0000391,0.0000723,
 0.0547246,-0.0000007,-0.0000378,-0.0000007,0.0547372,0.0032217,0.02663
 87,0.0541217,0.0216029,0.072016,-0.028139,0.0439106,-0.0281313,0.02873
 01,0.0032486,-0.0602018,-0.0039736,-0.0488404,0.0151897,-0.0046684,-0.
 0032184,-0.0046732,0.0855646,0.0031754,0.0335297,-0.0501333,0.0272003,
 0.0639173,0.0328064,-0.0406761,0.0328035,0.0368202,-0.6690502,-0.00003
 7,0.0000206,-0.0000345,-0.2410025,0.0000002,0.0000189,0.0000002,-0.241
 0049,-1.1938328,-0.0000057,0.0000037,-0.0000006,-0.9648451,0.0000016,0
 .0000028,0.0000016,-0.9648472|Polar=21.3704,0.0014364,5.7817333,-0.000
 7416,0.0000386,5.7818843|PolarDeriv=18.4207205,0.0012177,-1.1791358,-0
 .0007839,-0.0001188,-1.1789547,0.0013701,-0.6869991,1.3057075,-0.00011
 54,0.2620376,-1.3060547,-0.000878,-0.0001154,0.2620723,-0.6868682,-1.3
 059855,-0.2619152,2.2865479,0.9837682,0.2664043,1.9976279,0.0262155,0.
 3065292,0.5020673,1.5362281,1.5235101,0.2190776,1.7809068,0.4642345,1.
 0196904,0.219146,0.0821581,1.8729977,1.3009872,3.9533774,2.2869301,-2.
 2217938,0.319129,-0.1468757,0.0043884,0.253745,-1.1342316,1.9785308,-4
 .6964555,0.036452,-0.2141165,0.2082658,-0.0749193,0.0364108,-0.0891232
 ,1.4307719,-1.6811102,-0.2077741,2.2854339,1.2381217,0.2739162,-1.8507
 736,-0.0305071,0.2990419,0.6317859,1.5989788,2.0170541,-0.2554142,-1.7
 991994,0.4845923,-0.9444566,-0.2554414,-0.2252119,1.8098412,1.5376264,
 -3.5140626,-21.6799861,-0.0012241,0.2906024,0.0007292,0.0000179,0.2905
 628,-0.0010708,-4.6649431,-0.1686993,0.0000146,-0.03341,0.1678384,0.00
 0572,0.0000146,-0.0336829,-4.6649741,0.1673502,0.0341709,-3.5996463,-0
 .0000897,0.029084,0.000076,0.000004,0.0290759,0.0000791,0.2382046,0.01
 88832,-0.0000147,0.0037815,-0.0188763,-0.0000085,-0.0000147,0.0037877,
 0.2382315,-0.0188681,-0.0037964|HyperPolar=-120.0398818,0.0006937,4.17
 47415,-3.4139456,0.0009671,0.0003335,-0.6854113,4.1743788,3.4155921,0.
 6845825|Quadrupole=-29.0163854,14.508194,14.5081914,-0.0009337,0.00069
 61,0.0000215|PG=C01 [X(C1H3Br1Cl1)]|NImag=2||0.54225383,-0.00002921,0.
 80654879,0.00000300,-0.00001392,0.80652698,-0.10440652,-0.06012648,-0.
 12208781,0.11123249,-0.05815095,-0.14752110,-0.13966993,0.05817612,0.1
 3961639,-0.11807706,-0.13966931,-0.36232505,0.11812211,0.14818407,0.36
 751762,-0.10442330,0.13583120,0.00898034,0.00788048,-0.01537800,0.0006
 9196,0.11125050,0.13137109,-0.42959550,-0.02319941,0.00523000,-0.00790
 947,0.00700929,-0.13142138,0.43888737,0.00868563,-0.02320096,-0.080262
 14,0.01448040,-0.03597240,0.00405003,-0.00869012,0.02461343,0.06825876
 ,-0.10437720,-0.07565710,0.11309235,0.00787718,0.00992457,-0.01176664,
 0.00787867,0.00708983,-0.01366666,0.11120407,-0.07317105,-0.18769651,0
 .16288339,0.00828707,0.01360470,-0.01943148,-0.01514903,-0.01148185,0.
 03391291,0.07320035,0.18224088,0.10937697,0.16288432,-0.32220454,0.012
 96698,0.02355491,-0.01746078,-0.00270998,-0.00907276,0.00762398,-0.109
 41804,-0.17281219,0.32494759,-0.23146673,-0.00001829,0.00001199,-0.022
 01253,0.00594344,0.01207493,-0.02201515,-0.01343268,-0.00088635,-0.022
 01178,0.00748049,-0.01118402,0.30487985,-0.00001904,-0.04128863,0.0000
 0004,-0.01107137,0.00272567,0.00341045,0.02499825,0.00961196,0.0005644
 1,-0.01393449,0.00370591,-0.00397493,0.00002687,0.02440985,0.00001098,
 0.00000004,-0.04128852,-0.02247590,0.00340623,0.00797003,0.00165381,0.
 00056691,0.00108511,0.02082750,-0.00397321,0.00698846,-0.00001650,-0.0
 0000002,0.02440976,0.00241992,-0.00000011,0.00000013,-0.00057111,-0.00
 051518,-0.00104529,-0.00057120,0.00116315,0.00007711,-0.00057094,-0.00
 064782,0.00096809,-0.00737365,-0.00000022,0.00000011,0.00666698,-0.000
 00083,-0.00044705,-0.00000018,-0.00049534,-0.00051620,0.00049698,0.001
 11897,0.00048747,0.00008262,-0.00062315,-0.00037313,-0.00057936,0.0000
 0017,0.00083524,0.00000004,0.00000018,0.00001368,0.00000049,-0.0000001
 8,-0.00044673,-0.00100578,0.00049711,0.00024816,0.00007399,0.00008254,
 -0.00075574,0.00093150,-0.00057942,0.00010530,-0.00000005,0.00000004,0
 .00083516,-0.00000015,-0.00000010,0.00001386||0.00000087,-0.00000404,-
 0.00001111,0.00000306,0.00000269,0.00000618,-0.00000410,0.00000730,-0.
 00000010,-0.00000097,-0.00000437,0.00000491,0.00000080,-0.00000156,0.0
 0000011,0.00000033,-0.00000003,0.|||@
 The archive entry for this job was punched.


 Just remember, when you're over the hill, you begin to pick up speed.
 -- Charles Schulz
 Job cpu time:       0 days  0 hours  0 minutes  3.0 seconds.
 Elapsed time:       0 days  0 hours  0 minutes  1.9 seconds.
 File lengths (MBytes):  RWF=      6 Int=      0 D2E=      0 Chk=      1 Scr=      1
 Normal termination of Gaussian 16 at Thu Dec 01 11:00:19 2022.
