 Entering Link 1 = C:\G16W\l1.exe PID=     11360.
  
 Copyright (c) 1988-2019, Gaussian, Inc.  All Rights Reserved.
  
 This is part of the Gaussian(R) 16 program.  It is based on
 the Gaussian(R) 09 system (copyright 2009, Gaussian, Inc.),
 the Gaussian(R) 03 system (copyright 2003, Gaussian, Inc.),
 the Gaussian(R) 98 system (copyright 1998, Gaussian, Inc.),
 the Gaussian(R) 94 system (copyright 1995, Gaussian, Inc.),
 the Gaussian 92(TM) system (copyright 1992, Gaussian, Inc.),
 the Gaussian 90(TM) system (copyright 1990, Gaussian, Inc.),
 the Gaussian 88(TM) system (copyright 1988, Gaussian, Inc.),
 the Gaussian 86(TM) system (copyright 1986, Carnegie Mellon
 University), and the Gaussian 82(TM) system (copyright 1983,
 Carnegie Mellon University). Gaussian is a federally registered
 trademark of Gaussian, Inc.
  
 This software contains proprietary and confidential information,
 including trade secrets, belonging to Gaussian, Inc.
  
 This software is provided under written license and may be
 used, copied, transmitted, or stored only in accord with that
 written license.
  
 The following legend is applicable only to US Government
 contracts under FAR:
  
                    RESTRICTED RIGHTS LEGEND
  
 Use, reproduction and disclosure by the US Government is
 subject to restrictions as set forth in subparagraphs (a)
 and (c) of the Commercial Computer Software - Restricted
 Rights clause in FAR 52.227-19.
  
 Gaussian, Inc.
 340 Quinnipiac St., Bldg. 40, Wallingford CT 06492
  
  
 ---------------------------------------------------------------
 Warning -- This program may not be used in any manner that
 competes with the business of Gaussian, Inc. or will provide
 assistance to any competitor of Gaussian, Inc.  The licensee
 of this program is prohibited from giving any competitor of
 Gaussian, Inc. access to this program.  By using this program,
 the user acknowledges that Gaussian, Inc. is engaged in the
 business of creating and licensing software in the field of
 computational chemistry and represents and warrants to the
 licensee that it is not a competitor of Gaussian, Inc. and that
 it will not use this program in any manner prohibited above.
 ---------------------------------------------------------------
  

 Cite this work as:
 Gaussian 16, Revision C.01,
 M. J. Frisch, G. W. Trucks, H. B. Schlegel, G. E. Scuseria, 
 M. A. Robb, J. R. Cheeseman, G. Scalmani, V. Barone, 
 G. A. Petersson, H. Nakatsuji, X. Li, M. Caricato, A. V. Marenich, 
 J. Bloino, B. G. Janesko, R. Gomperts, B. Mennucci, H. P. Hratchian, 
 J. V. Ortiz, A. F. Izmaylov, J. L. Sonnenberg, D. Williams-Young, 
 F. Ding, F. Lipparini, F. Egidi, J. Goings, B. Peng, A. Petrone, 
 T. Henderson, D. Ranasinghe, V. G. Zakrzewski, J. Gao, N. Rega, 
 G. Zheng, W. Liang, M. Hada, M. Ehara, K. Toyota, R. Fukuda, 
 J. Hasegawa, M. Ishida, T. Nakajima, Y. Honda, O. Kitao, H. Nakai, 
 T. Vreven, K. Throssell, J. A. Montgomery, Jr., J. E. Peralta, 
 F. Ogliaro, M. J. Bearpark, J. J. Heyd, E. N. Brothers, K. N. Kudin, 
 V. N. Staroverov, T. A. Keith, R. Kobayashi, J. Normand, 
 K. Raghavachari, A. P. Rendell, J. C. Burant, S. S. Iyengar, 
 J. Tomasi, M. Cossi, J. M. Millam, M. Klene, C. Adamo, R. Cammi, 
 J. W. Ochterski, R. L. Martin, K. Morokuma, O. Farkas, 
 J. B. Foresman, and D. J. Fox, Gaussian, Inc., Wallingford CT, 2019.
 
 ******************************************
 Gaussian 16:  EM64W-G16RevC.01 30-May-2019
                01-Dec-2022 
 ******************************************
 %chk=C:\Users\chemistry\Documents\Gruppe H\input‹Z.chk
 --------------------------------------------------
 # opt=(calcfc,ts) freq hf/sto-3g geom=connectivity
 --------------------------------------------------
 1/5=1,10=4,18=20,38=1,57=2/1,3;
 2/9=110,12=2,17=6,18=5,40=1/2;
 3/6=3,11=9,25=1,30=1,71=2,140=1/1,2,3;
 4//1;
 5/5=2,38=5/2;
 8/6=4,10=90,11=11/1;
 11/6=1,8=1,9=11,15=111,16=1/1,2,10;
 10/6=1,13=1/2;
 6/7=2,8=2,9=2,10=2,28=1/1;
 7/10=1,25=1/1,2,3,16;
 1/5=1,10=4,18=20/3(2);
 2/9=110/2;
 99//99;
 2/9=110/2;
 3/6=3,11=9,25=1,30=1,71=1/1,2,3;
 4/5=5,16=3,69=1/1;
 5/5=2,38=5/2;
 7//1,2,3,16;
 1/5=1,18=20/3(-5);
 2/9=110/2;
 6/7=2,8=2,9=2,10=2,19=2,28=1/1;
 99/9=1/99;
 -------------------
 Title Card Required
 -------------------
 Symbolic Z-matrix:
 Charge = -1 Multiplicity = 1
 C                     0.87009   0.        0.00003 
 H                     0.80811  -0.91715  -0.52941 
 H                     0.80811   0.91715  -0.52941 
 H                     0.80802   0.        1.05902 
 Br                   -1.75818   0.       -0.00001 
 Cl                    3.17009   0.       -0.00001 
 
 Add virtual bond connecting atoms Cl6        and C1         Dist= 4.35D+00.
 Add virtual bond connecting atoms Br5        and C1         Dist= 4.97D+00.
 Add virtual bond connecting atoms Br5        and H2         Dist= 5.25D+00.
 Add virtual bond connecting atoms Br5        and H3         Dist= 5.25D+00.
 Add virtual bond connecting atoms Br5        and H4         Dist= 5.25D+00.

 GradGradGradGradGradGradGradGradGradGradGradGradGradGradGradGradGradGrad
 Berny optimization.
 Initialization pass.
                           ----------------------------
                           !    Initial Parameters    !
                           ! (Angstroms and Degrees)  !
 --------------------------                            --------------------------
 ! Name  Definition              Value          Derivative Info.                !
 --------------------------------------------------------------------------------
 ! R1    R(1,2)                  1.0608         calculate D2E/DX2 analytically  !
 ! R2    R(1,3)                  1.0608         calculate D2E/DX2 analytically  !
 ! R3    R(1,4)                  1.0608         calculate D2E/DX2 analytically  !
 ! R4    R(1,5)                  2.6283         calculate D2E/DX2 analytically  !
 ! R5    R(1,6)                  2.3            calculate D2E/DX2 analytically  !
 ! R6    R(2,5)                  2.7762         calculate D2E/DX2 analytically  !
 ! R7    R(3,5)                  2.7762         calculate D2E/DX2 analytically  !
 ! R8    R(4,5)                  2.7761         calculate D2E/DX2 analytically  !
 ! A1    A(2,1,3)              119.6686         calculate D2E/DX2 analytically  !
 ! A2    A(2,1,4)              119.6579         calculate D2E/DX2 analytically  !
 ! A3    A(2,1,6)               93.3493         calculate D2E/DX2 analytically  !
 ! A4    A(3,1,4)              119.6578         calculate D2E/DX2 analytically  !
 ! A5    A(3,1,6)               93.3493         calculate D2E/DX2 analytically  !
 ! A6    A(4,1,6)               93.3557         calculate D2E/DX2 analytically  !
 ! A7    A(2,5,3)               38.5815         calculate D2E/DX2 analytically  !
 ! A8    A(2,5,4)               38.5798         calculate D2E/DX2 analytically  !
 ! A9    A(3,5,4)               38.5798         calculate D2E/DX2 analytically  !
 ! A10   L(5,1,6,2,-1)         179.9991         calculate D2E/DX2 analytically  !
 ! A11   L(5,1,6,2,-2)         179.9984         calculate D2E/DX2 analytically  !
 ! D1    D(2,1,4,3)           -168.437          calculate D2E/DX2 analytically  !
 ! D2    D(2,1,6,3)            120.0068         calculate D2E/DX2 analytically  !
 ! D3    D(2,1,6,4)           -119.9966         calculate D2E/DX2 analytically  !
 ! D4    D(3,1,6,4)            119.9966         calculate D2E/DX2 analytically  !
 ! D5    D(3,2,5,1)            -31.9843         calculate D2E/DX2 analytically  !
 ! D6    D(4,2,5,1)             31.9901         calculate D2E/DX2 analytically  !
 ! D7    D(4,3,5,1)            -31.9902         calculate D2E/DX2 analytically  !
 --------------------------------------------------------------------------------
 Trust Radius=3.00D-01 FncErr=1.00D-07 GrdErr=1.00D-07 EigMax=2.50D+02 EigMin=1.00D-04
 Number of steps in this run=     36 maximum allowed number of steps=    100.
 Search for a saddle point of order  1.
 GradGradGradGradGradGradGradGradGradGradGradGradGradGradGradGradGradGrad

                          Input orientation:                          
 ---------------------------------------------------------------------
 Center     Atomic      Atomic             Coordinates (Angstroms)
 Number     Number       Type             X           Y           Z
 ---------------------------------------------------------------------
      1          6           0        0.870091    0.000000    0.000031
      2          1           0        0.808105   -0.917148   -0.529412
      3          1           0        0.808105    0.917149   -0.529411
      4          1           0        0.808016    0.000000    1.059023
      5         35           0       -1.758182    0.000000   -0.000006
      6         17           0        3.170093    0.000000   -0.000011
 ---------------------------------------------------------------------
                    Distance matrix (angstroms):
                    1          2          3          4          5
     1  C    0.000000
     2  H    1.060808   0.000000
     3  H    1.060808   1.834297   0.000000
     4  H    1.060810   1.834199   1.834199   0.000000
     5  Br   2.628273   2.776195   2.776195   2.776133   0.000000
     6  Cl   2.300002   2.588516   2.588516   2.588621   4.928275
                    6
     6  Cl   0.000000
 This structure is nearly, but not quite of a higher symmetry.
 Consider Symm=Loose if the higher symmetry is desired.
 Stoichiometry    CH3BrCl(1-)
 Framework group  C1[X(CH3BrCl)]
 Deg. of freedom    12
 Full point group                 C1      NOp   1
 Largest Abelian subgroup         C1      NOp   1
 Largest concise Abelian subgroup C1      NOp   1
                         Standard orientation:                         
 ---------------------------------------------------------------------
 Center     Atomic      Atomic             Coordinates (Angstroms)
 Number     Number       Type             X           Y           Z
 ---------------------------------------------------------------------
      1          6           0       -0.000029    0.001406    0.870090
      2          1           0        0.527931   -0.916695    0.809586
      3          1           0        0.530894    0.917597    0.806622
      4          1           0       -1.059020    0.003017    0.808015
      5         35           0        0.000001   -0.002841   -1.758179
      6         17           0        0.000019    0.005123    3.170089
 ---------------------------------------------------------------------
 Rotational constants (GHZ):         149.0471637           0.8334398           0.8334394
 Standard basis: STO-3G (5D, 7F)
 There are    36 symmetry adapted cartesian basis functions of A   symmetry.
 There are    35 symmetry adapted basis functions of A   symmetry.
    35 basis functions,   108 primitive gaussians,    36 cartesian basis functions
    31 alpha electrons       31 beta electrons
       nuclear repulsion energy       169.9229235897 Hartrees.
 NAtoms=    6 NActive=    6 NUniq=    6 SFac= 1.00D+00 NAtFMM=   60 NAOKFM=F Big=F
 Integral buffers will be    131072 words long.
 Raffenetti 1 integral format.
 Two-electron integral symmetry is turned on.
 One-electron integrals computed using PRISM.
 NBasis=    35 RedAO= T EigKep=  2.41D-01  NBF=    35
 NBsUse=    35 1.00D-06 EigRej= -1.00D+00 NBFU=    35
 ExpMin= 1.69D-01 ExpMax= 2.63D+03 ExpMxC= 2.63D+03 IAcc=3 IRadAn=         5 AccDes= 0.00D+00
 Harris functional with IExCor=  205 and IRadAn=       5 diagonalized for initial guess.
 HarFok:  IExCor=  205 AccDes= 0.00D+00 IRadAn=         5 IDoV= 1 UseB2=F ITyADJ=14
 ICtDFT=  3500011 ScaDFX=  1.000000  1.000000  1.000000  1.000000
 FoFCou: FMM=F IPFlag=           0 FMFlag=      100000 FMFlg1=           0
         NFxFlg=           0 DoJE=T BraDBF=F KetDBF=T FulRan=T
         wScrn=  0.000000 ICntrl=       500 IOpCl=  0 I1Cent=   200000004 NGrid=           0
         NMat0=    1 NMatS0=      1 NMatT0=    0 NMatD0=    1 NMtDS0=    0 NMtDT0=    0
 Petite list used in FoFCou.
 Keep R1 ints in memory in canonical form, NReq=1030959.
 Requested convergence on RMS density matrix=1.00D-08 within 128 cycles.
 Requested convergence on MAX density matrix=1.00D-06.
 Requested convergence on             energy=1.00D-06.
 No special actions if energy rises.
 SCF Done:  E(RHF) =  -3038.24041930     A.U. after    9 cycles
            NFock=  9  Conv=0.14D-08     -V/T= 2.0018
 Range of M.O.s used for correlation:     1    35
 NBasis=    35 NAE=    31 NBE=    31 NFC=     0 NFV=     0
 NROrb=     35 NOA=    31 NOB=    31 NVA=     4 NVB=     4
 Symmetrizing basis deriv contribution to polar:
 IMax=3 JMax=2 DiffMx= 0.00D+00
 G2DrvN: will do     7 centers at a time, making    1 passes.
 Calling FoFCou, ICntrl=  3107 FMM=F I1Cent=   0 AccDes= 0.00D+00.
 End of G2Drv F.D. properties file   721 does not exist.
 End of G2Drv F.D. properties file   722 does not exist.
 End of G2Drv F.D. properties file   788 does not exist.
          IDoAtm=111111
          Differentiating once with respect to nuclear coordinates.
 Keep R1 ints in memory in canonical form, NReq=1031691.
          There are    21 degrees of freedom in the 1st order CPHF.  IDoFFX=6 NUNeed=     0.
     15 vectors produced by pass  0 Test12= 5.90D-16 4.76D-09 XBig12= 1.15D-01 2.83D-01.
 AX will form    15 AO Fock derivatives at one time.
     15 vectors produced by pass  1 Test12= 5.90D-16 4.76D-09 XBig12= 1.68D-04 7.62D-03.
     15 vectors produced by pass  2 Test12= 5.90D-16 4.76D-09 XBig12= 3.18D-07 2.21D-04.
     15 vectors produced by pass  3 Test12= 5.90D-16 4.76D-09 XBig12= 1.27D-09 1.78D-05.
     15 vectors produced by pass  4 Test12= 5.90D-16 4.76D-09 XBig12= 1.10D-12 4.93D-07.
      1 vectors produced by pass  5 Test12= 5.90D-16 4.76D-09 XBig12= 1.04D-15 1.64D-08.
 InvSVY:  IOpt=1 It=  1 EMax= 1.33D-15
 Solved reduced A of dimension    76 with    15 vectors.
 End of Minotr F.D. properties file   721 does not exist.
 End of Minotr F.D. properties file   722 does not exist.
 End of Minotr F.D. properties file   788 does not exist.

 **********************************************************************

            Population analysis using the SCF Density.

 **********************************************************************

 Orbital symmetries:
       Occupied  (A) (A) (A) (A) (A) (A) (A) (A) (A) (A) (A) (A)
                 (A) (A) (A) (A) (A) (A) (A) (A) (A) (A) (A) (A)
                 (A) (A) (A) (A) (A) (A) (A)
       Virtual   (A) (A) (A) (A)
 The electronic state is 1-A.
 Alpha  occ. eigenvalues -- -484.02406-103.28412 -62.76038 -57.30898 -57.30816
 Alpha  occ. eigenvalues --  -57.30816 -10.97339  -9.99415  -8.72845  -7.43640
 Alpha  occ. eigenvalues --   -7.43387  -7.43387  -6.47559  -6.47139  -6.47139
 Alpha  occ. eigenvalues --   -1.82871  -1.82728  -1.82728  -1.82299  -1.82299
 Alpha  occ. eigenvalues --   -0.78608  -0.67468  -0.52168  -0.44155  -0.44153
 Alpha  occ. eigenvalues --   -0.16327  -0.12043  -0.12043  -0.01869  -0.01869
 Alpha  occ. eigenvalues --    0.00101
 Alpha virt. eigenvalues --    0.38116   0.79372   0.88624   0.88630
          Condensed to atoms (all electrons):
               1          2          3          4          5          6
     1  C    4.706530   0.396856   0.396855   0.396851   0.051733   0.082159
     2  H    0.396856   0.534303  -0.017760  -0.017767  -0.006201  -0.010640
     3  H    0.396855  -0.017760   0.534303  -0.017767  -0.006201  -0.010640
     4  H    0.396851  -0.017767  -0.017767   0.534318  -0.006200  -0.010636
     5  Br   0.051733  -0.006201  -0.006201  -0.006200  35.677367   0.000128
     6  Cl   0.082159  -0.010640  -0.010640  -0.010636   0.000128  17.571638
 Mulliken charges:
               1
     1  C   -0.030985
     2  H    0.121209
     3  H    0.121209
     4  H    0.121201
     5  Br  -0.710627
     6  Cl  -0.622008
 Sum of Mulliken charges =  -1.00000
 Mulliken charges with hydrogens summed into heavy atoms:
               1
     1  C    0.332635
     5  Br  -0.710627
     6  Cl  -0.622008
 APT charges:
               1
     1  C   -0.767187
     2  H    0.327086
     3  H    0.327086
     4  H    0.327063
     5  Br  -0.686503
     6  Cl  -0.527545
 Sum of APT charges =  -1.00000
 APT charges with hydrogens summed into heavy atoms:
               1
     1  C    0.214048
     5  Br  -0.686503
     6  Cl  -0.527545
 Electronic spatial extent (au):  <R**2>=           1142.1187
 Charge=             -1.0000 electrons
 Dipole moment (field-independent basis, Debye):
    X=             -0.0001    Y=             -0.0035    Z=             -2.1464  Tot=              2.1464
 Quadrupole moment (field-independent basis, Debye-Ang):
   XX=            -35.8008   YY=            -35.8006   ZZ=            -76.9456
   XY=              0.0000   XZ=             -0.0002   YZ=             -0.0665
 Traceless Quadrupole moment (field-independent basis, Debye-Ang):
   XX=             13.7149   YY=             13.7151   ZZ=            -27.4299
   XY=              0.0000   XZ=             -0.0002   YZ=             -0.0665
 Octapole moment (field-independent basis, Debye-Ang**2):
  XXX=             -0.8259  YYY=             -0.0703  ZZZ=           -120.9531  XYY=              0.8259
  XXY=             -0.0181  XXZ=            -13.6748  XZZ=             -0.0004  YZZ=             -0.1513
  YYZ=            -13.6746  XYZ=             -0.0013
 Hexadecapole moment (field-independent basis, Debye-Ang**3):
 XXXX=            -36.4743 YYYY=            -36.4776 ZZZZ=          -1440.7646 XXXY=             -0.0011
 XXXZ=             -0.6535 YYYX=              0.0032 YYYZ=             -0.8787 ZZZX=             -0.0029
 ZZZY=             -1.3936 XXYY=            -12.1588 XXZZ=           -192.7748 YYZZ=           -192.7758
 XXYZ=             -0.2887 YYXZ=              0.6514 ZZXY=             -0.0021
 N-N= 1.699229235897D+02 E-N=-7.637479115569D+03  KE= 3.032847675316D+03
  Exact polarizability:       0.000       0.000       0.000       0.000       0.000       0.000
 Approx polarizability:       4.403       0.000       4.404       0.000       0.101      66.908
 Calling FoFJK, ICntrl=    100127 FMM=F ISym2X=0 I1Cent= 0 IOpClX= 0 NMat=1 NMatS=1 NMatT=0.
 ***** Axes restored to original set *****
 -------------------------------------------------------------------
 Center     Atomic                   Forces (Hartrees/Bohr)
 Number     Number              X              Y              Z
 -------------------------------------------------------------------
      1        6           0.012382583    0.000000428    0.000013136
      2        1          -0.002088879   -0.018906303   -0.010927456
      3        1          -0.002088851    0.018905954   -0.010927309
      4        1          -0.002081430   -0.000000076    0.021837813
      5       35           0.035408138   -0.000000001   -0.000000041
      6       17          -0.041531561   -0.000000002    0.000003856
 -------------------------------------------------------------------
 Cartesian Forces:  Max     0.041531561 RMS     0.015943622
 FormGI is forming the generalized inverse of G from B-inverse, IUseBI=4.

 GradGradGradGradGradGradGradGradGradGradGradGradGradGradGradGradGradGrad
 Berny optimization.
 Internal  Forces:  Max     0.041531561 RMS     0.011970404
 Search for a saddle point.
 Step number   1 out of a maximum of   36
 All quantities printed in internal units (Hartrees-Bohrs-Radians)
 Swapping is turned off.
 Second derivative matrix not updated -- analytic derivatives used.
 ITU=  0
     Eigenvalues ---   -0.03814   0.01385   0.02262   0.02266   0.05271
     Eigenvalues ---    0.05320   0.06975   0.08601   0.08646   0.47744
     Eigenvalues ---    0.51533   0.52091
 Eigenvectors required to have negative eigenvalues:
                          R5        D1        R4        A5        A3
   1                   -0.57899   0.53695   0.48178   0.15709   0.15696
                          A6        R6        R7        R8        A4
   1                    0.15663   0.14825   0.14732   0.14711  -0.03193
 RFO step:  Lambda0=1.472871547D-03 Lambda=-2.91738065D-02.
 Linear search not attempted -- option 19 set.
 Maximum step size (   0.300) exceeded in Quadratic search.
    -- Step size scaled by   0.473
 Iteration  1 RMS(Cart)=  0.04487388 RMS(Int)=  0.00035710
 Iteration  2 RMS(Cart)=  0.00018835 RMS(Int)=  0.00027103
 Iteration  3 RMS(Cart)=  0.00000002 RMS(Int)=  0.00027103
 Variable       Old X    -DE/DX   Delta X   Delta X   Delta X     New X
                                 (Linear)    (Quad)   (Total)
    R1        2.00464   0.02140   0.00000   0.01720   0.01707   2.02171
    R2        2.00464   0.02112   0.00000   0.01718   0.01703   2.02167
    R3        2.00464   0.02091   0.00000   0.01717   0.01701   2.02165
    R4        4.96672  -0.01752   0.00000  -0.16636  -0.16665   4.80006
    R5        4.34637  -0.04153   0.00000  -0.14848  -0.14848   4.19789
    R6        5.24625  -0.00542   0.00000  -0.11091  -0.11077   5.13548
    R7        5.24625  -0.00534   0.00000  -0.11063  -0.11048   5.13577
    R8        5.24613  -0.00527   0.00000  -0.11038  -0.11022   5.13591
    A1        2.08861   0.00017   0.00000   0.00470   0.00402   2.09263
    A2        2.08842   0.00054   0.00000   0.00364   0.00295   2.09138
    A3        1.62925  -0.00204   0.00000  -0.01979  -0.01971   1.60954
    A4        2.08842   0.00055   0.00000   0.00364   0.00296   2.09138
    A5        1.62925  -0.00207   0.00000  -0.01983  -0.01975   1.60950
    A6        1.62936  -0.00213   0.00000  -0.01980  -0.01973   1.60964
    A7        0.67337   0.00818   0.00000   0.02174   0.02205   0.69542
    A8        0.67334   0.00821   0.00000   0.02150   0.02180   0.69514
    A9        0.67334   0.00816   0.00000   0.02148   0.02177   0.69512
   A10        3.14158  -0.00004   0.00000  -0.00013  -0.00013   3.14144
   A11        3.14156  -0.00001   0.00000  -0.00009  -0.00010   3.14147
    D1       -2.93978  -0.00710   0.00000  -0.06787  -0.06783  -3.00761
    D2        2.09451  -0.00024   0.00000   0.00071   0.00071   2.09523
    D3       -2.09434  -0.00012   0.00000   0.00036   0.00036  -2.09398
    D4        2.09434   0.00013   0.00000  -0.00036  -0.00036   2.09398
    D5       -0.55823  -0.00098   0.00000  -0.00197  -0.00204  -0.56028
    D6        0.55833   0.00075   0.00000   0.00251   0.00259   0.56092
    D7       -0.55833  -0.00079   0.00000  -0.00254  -0.00261  -0.56094
         Item               Value     Threshold  Converged?
 Maximum Force            0.041532     0.000450     NO 
 RMS     Force            0.011970     0.000300     NO 
 Maximum Displacement     0.170933     0.001800     NO 
 RMS     Displacement     0.044894     0.001200     NO 
 Predicted change in Energy=-1.124974D-02
 GradGradGradGradGradGradGradGradGradGradGradGradGradGradGradGradGradGrad

                          Input orientation:                          
 ---------------------------------------------------------------------
 Center     Atomic      Atomic             Coordinates (Angstroms)
 Number     Number       Type             X           Y           Z
 ---------------------------------------------------------------------
      1          6           0        0.858211    0.000029   -0.000018
      2          1           0        0.816693   -0.926006   -0.534149
      3          1           0        0.816792    0.926052   -0.534139
      4          1           0        0.816766    0.000031    1.068988
      5         35           0       -1.681873   -0.000068   -0.000248
      6         17           0        3.079639   -0.000036   -0.000220
 ---------------------------------------------------------------------
                    Distance matrix (angstroms):
                    1          2          3          4          5
     1  C    0.000000
     2  H    1.069842   0.000000
     3  H    1.069822   1.852059   0.000000
     4  H    1.069809   1.851376   1.851359   0.000000
     5  Br   2.540084   2.717580   2.717732   2.717805   0.000000
     6  Cl   2.221428   2.502684   2.502636   2.502758   4.761512
                    6
     6  Cl   0.000000
 Stoichiometry    CH3BrCl(1-)
 Framework group  C1[X(CH3BrCl)]
 Deg. of freedom    12
 Full point group                 C1      NOp   1
 Largest Abelian subgroup         C1      NOp   1
 Largest concise Abelian subgroup C1      NOp   1
                         Standard orientation:                         
 ---------------------------------------------------------------------
 Center     Atomic      Atomic             Coordinates (Angstroms)
 Number     Number       Type             X           Y           Z
 ---------------------------------------------------------------------
      1          6           0       -0.840378    0.000068   -0.000163
      2          1           0       -0.798843   -0.931664    0.523968
      3          1           0       -0.798960    0.920288    0.543895
      4          1           0       -0.798948    0.011578   -1.069108
      5         35           0        1.699706   -0.000008    0.000030
      6         17           0       -3.061806   -0.000020    0.000070
 ---------------------------------------------------------------------
 Rotational constants (GHZ):         146.2643703           0.8924217           0.8924189
 Standard basis: STO-3G (5D, 7F)
 There are    36 symmetry adapted cartesian basis functions of A   symmetry.
 There are    35 symmetry adapted basis functions of A   symmetry.
    35 basis functions,   108 primitive gaussians,    36 cartesian basis functions
    31 alpha electrons       31 beta electrons
       nuclear repulsion energy       175.1630226095 Hartrees.
 NAtoms=    6 NActive=    6 NUniq=    6 SFac= 1.00D+00 NAtFMM=   60 NAOKFM=F Big=F
 Integral buffers will be    131072 words long.
 Raffenetti 1 integral format.
 Two-electron integral symmetry is turned on.
 One-electron integrals computed using PRISM.
 NBasis=    35 RedAO= T EigKep=  2.46D-01  NBF=    35
 NBsUse=    35 1.00D-06 EigRej= -1.00D+00 NBFU=    35
 Initial guess from the checkpoint file:  "C:\Users\chemistry\Documents\Gruppe H\input‹Z.chk"
 B after Tr=     0.000000    0.000000    0.000000
         Rot=    0.707096   -0.003806    0.707102    0.002663 Ang= -90.00 deg.
 ExpMin= 1.69D-01 ExpMax= 2.63D+03 ExpMxC= 2.63D+03 IAcc=3 IRadAn=         5 AccDes= 0.00D+00
 Harris functional with IExCor=  205 and IRadAn=       5 diagonalized for initial guess.
 HarFok:  IExCor=  205 AccDes= 0.00D+00 IRadAn=         5 IDoV= 1 UseB2=F ITyADJ=14
 ICtDFT=  3500011 ScaDFX=  1.000000  1.000000  1.000000  1.000000
 FoFCou: FMM=F IPFlag=           0 FMFlag=      100000 FMFlg1=           0
         NFxFlg=           0 DoJE=T BraDBF=F KetDBF=T FulRan=T
         wScrn=  0.000000 ICntrl=       500 IOpCl=  0 I1Cent=   200000004 NGrid=           0
         NMat0=    1 NMatS0=      1 NMatT0=    0 NMatD0=    1 NMtDS0=    0 NMtDT0=    0
 Petite list used in FoFCou.
 Keep R1 ints in memory in canonical form, NReq=1031083.
 Requested convergence on RMS density matrix=1.00D-08 within 128 cycles.
 Requested convergence on MAX density matrix=1.00D-06.
 Requested convergence on             energy=1.00D-06.
 No special actions if energy rises.
 SCF Done:  E(RHF) =  -3038.25143797     A.U. after    8 cycles
            NFock=  8  Conv=0.25D-08     -V/T= 2.0018
 Calling FoFJK, ICntrl=      2127 FMM=F ISym2X=0 I1Cent= 0 IOpClX= 0 NMat=1 NMatS=1 NMatT=0.
 ***** Axes restored to original set *****
 -------------------------------------------------------------------
 Center     Atomic                   Forces (Hartrees/Bohr)
 Number     Number              X              Y              Z
 -------------------------------------------------------------------
      1        6           0.006497030   -0.000023939    0.000068165
      2        1          -0.003452803   -0.009749396   -0.005711338
      3        1          -0.003461975    0.009768211   -0.005722242
      4        1          -0.003452644   -0.000000058    0.011350011
      5       35           0.028697612    0.000004480    0.000007785
      6       17          -0.024827220    0.000000701    0.000007620
 -------------------------------------------------------------------
 Cartesian Forces:  Max     0.028697612 RMS     0.010281167

 GradGradGradGradGradGradGradGradGradGradGradGradGradGradGradGradGradGrad
 Berny optimization.
 FormGI is forming the generalized inverse of G from B-inverse, IUseBI=4.
 Internal  Forces:  Max     0.024827221 RMS     0.007220683
 Search for a saddle point.
 Step number   2 out of a maximum of   36
 All quantities printed in internal units (Hartrees-Bohrs-Radians)
 Swapping is turned off.
 Update second derivatives using D2CorX and points    1    2
 ITU=  0  0
     Eigenvalues ---   -0.03886   0.01461   0.02262   0.02266   0.05296
     Eigenvalues ---    0.05323   0.08067   0.08600   0.08642   0.47721
     Eigenvalues ---    0.51527   0.52085
 Eigenvectors required to have negative eigenvalues:
                          R5        D1        R4        R6        R7
   1                   -0.56012   0.53379   0.49606   0.16350   0.16256
                          R8        A5        A3        A6        A8
   1                    0.16231   0.15518   0.15504   0.15474  -0.02805
 RFO step:  Lambda0=1.528658522D-04 Lambda=-1.45068616D-02.
 Linear search not attempted -- option 19 set.
 Maximum step size (   0.300) exceeded in Quadratic search.
    -- Step size scaled by   0.546
 Iteration  1 RMS(Cart)=  0.03848207 RMS(Int)=  0.00024176
 Iteration  2 RMS(Cart)=  0.00009440 RMS(Int)=  0.00019392
 Iteration  3 RMS(Cart)=  0.00000000 RMS(Int)=  0.00019392
 Variable       Old X    -DE/DX   Delta X   Delta X   Delta X     New X
                                 (Linear)    (Quad)   (Total)
    R1        2.02171   0.01190   0.00000   0.01039   0.01022   2.03192
    R2        2.02167   0.01175   0.00000   0.01036   0.01016   2.03183
    R3        2.02165   0.01164   0.00000   0.01032   0.01008   2.03173
    R4        4.80006  -0.01232   0.00000  -0.13124  -0.13137   4.66870
    R5        4.19789  -0.02483   0.00000  -0.14467  -0.14467   4.05322
    R6        5.13548  -0.00527   0.00000  -0.12906  -0.12895   5.00654
    R7        5.13577  -0.00523   0.00000  -0.12910  -0.12898   5.00679
    R8        5.13591  -0.00518   0.00000  -0.12904  -0.12891   5.00700
    A1        2.09263   0.00001   0.00000  -0.00148  -0.00155   2.09108
    A2        2.09138   0.00019   0.00000  -0.00055  -0.00063   2.09075
    A3        1.60954  -0.00098   0.00000   0.00646   0.00649   1.61603
    A4        2.09138   0.00020   0.00000  -0.00055  -0.00062   2.09076
    A5        1.60950  -0.00100   0.00000   0.00647   0.00649   1.61599
    A6        1.60964  -0.00104   0.00000   0.00631   0.00633   1.61597
    A7        0.69542   0.00498   0.00000   0.02163   0.02213   0.71755
    A8        0.69514   0.00500   0.00000   0.02180   0.02230   0.71744
    A9        0.69512   0.00497   0.00000   0.02180   0.02229   0.71741
   A10        3.14144  -0.00002   0.00000   0.00005   0.00004   3.14148
   A11        3.14147   0.00000   0.00000   0.00007   0.00006   3.14153
    D1       -3.00761  -0.00345   0.00000   0.02214   0.02221  -2.98540
    D2        2.09523  -0.00012   0.00000  -0.00061  -0.00061   2.09462
    D3       -2.09398  -0.00006   0.00000  -0.00030  -0.00030  -2.09428
    D4        2.09398   0.00006   0.00000   0.00031   0.00031   2.09428
    D5       -0.56028  -0.00061   0.00000  -0.00279  -0.00289  -0.56317
    D6        0.56092   0.00049   0.00000   0.00230   0.00240   0.56332
    D7       -0.56094  -0.00051   0.00000  -0.00230  -0.00240  -0.56335
         Item               Value     Threshold  Converged?
 Maximum Force            0.024827     0.000450     NO 
 RMS     Force            0.007221     0.000300     NO 
 Maximum Displacement     0.140314     0.001800     NO 
 RMS     Displacement     0.038494     0.001200     NO 
 Predicted change in Energy=-6.343019D-03
 GradGradGradGradGradGradGradGradGradGradGradGradGradGradGradGradGradGrad

                          Input orientation:                          
 ---------------------------------------------------------------------
 Center     Atomic      Atomic             Coordinates (Angstroms)
 Number     Number       Type             X           Y           Z
 ---------------------------------------------------------------------
      1          6           0        0.862946    0.000031    0.000055
      2          1           0        0.814274   -0.930266   -0.536914
      3          1           0        0.814374    0.930290   -0.536889
      4          1           0        0.814438    0.000031    1.074105
      5         35           0       -1.607622   -0.000059   -0.000112
      6         17           0        3.007818   -0.000026   -0.000031
 ---------------------------------------------------------------------
                    Distance matrix (angstroms):
                    1          2          3          4          5
     1  C    0.000000
     2  H    1.075248   0.000000
     3  H    1.075197   1.860556   0.000000
     4  H    1.075145   1.860332   1.860291   0.000000
     5  Br   2.470568   2.649344   2.649480   2.649588   0.000000
     6  Cl   2.144871   2.442380   2.442314   2.442270   4.615440
                    6
     6  Cl   0.000000
 Stoichiometry    CH3BrCl(1-)
 Framework group  C1[X(CH3BrCl)]
 Deg. of freedom    12
 Full point group                 C1      NOp   1
 Largest Abelian subgroup         C1      NOp   1
 Largest concise Abelian subgroup C1      NOp   1
                         Standard orientation:                         
 ---------------------------------------------------------------------
 Center     Atomic      Atomic             Coordinates (Angstroms)
 Number     Number       Type             X           Y           Z
 ---------------------------------------------------------------------
      1          6           0       -0.822178    0.000067   -0.000095
      2          1           0       -0.773485   -0.966380    0.468697
      3          1           0       -0.773602    0.889376    0.602250
      4          1           0       -0.773693    0.077179   -1.071374
      5         35           0        1.648391   -0.000007    0.000012
      6         17           0       -2.967049   -0.000020    0.000033
 ---------------------------------------------------------------------
 Rotational constants (GHZ):         144.8847392           0.9492527           0.9492516
 Standard basis: STO-3G (5D, 7F)
 There are    36 symmetry adapted cartesian basis functions of A   symmetry.
 There are    35 symmetry adapted basis functions of A   symmetry.
    35 basis functions,   108 primitive gaussians,    36 cartesian basis functions
    31 alpha electrons       31 beta electrons
       nuclear repulsion energy       180.0986496599 Hartrees.
 NAtoms=    6 NActive=    6 NUniq=    6 SFac= 1.00D+00 NAtFMM=   60 NAOKFM=F Big=F
 Integral buffers will be    131072 words long.
 Raffenetti 1 integral format.
 Two-electron integral symmetry is turned on.
 One-electron integrals computed using PRISM.
 NBasis=    35 RedAO= T EigKep=  2.48D-01  NBF=    35
 NBsUse=    35 1.00D-06 EigRej= -1.00D+00 NBFU=    35
 Initial guess from the checkpoint file:  "C:\Users\chemistry\Documents\Gruppe H\input‹Z.chk"
 B after Tr=     0.000000    0.000000    0.000000
         Rot=    0.999534   -0.030541    0.000000    0.000000 Ang=  -3.50 deg.
 ExpMin= 1.69D-01 ExpMax= 2.63D+03 ExpMxC= 2.63D+03 IAcc=3 IRadAn=         5 AccDes= 0.00D+00
 Harris functional with IExCor=  205 and IRadAn=       5 diagonalized for initial guess.
 HarFok:  IExCor=  205 AccDes= 0.00D+00 IRadAn=         5 IDoV= 1 UseB2=F ITyADJ=14
 ICtDFT=  3500011 ScaDFX=  1.000000  1.000000  1.000000  1.000000
 FoFCou: FMM=F IPFlag=           0 FMFlag=      100000 FMFlg1=           0
         NFxFlg=           0 DoJE=T BraDBF=F KetDBF=T FulRan=T
         wScrn=  0.000000 ICntrl=       500 IOpCl=  0 I1Cent=   200000004 NGrid=           0
         NMat0=    1 NMatS0=      1 NMatT0=    0 NMatD0=    1 NMtDS0=    0 NMtDT0=    0
 Petite list used in FoFCou.
 Keep R1 ints in memory in canonical form, NReq=1031193.
 Requested convergence on RMS density matrix=1.00D-08 within 128 cycles.
 Requested convergence on MAX density matrix=1.00D-06.
 Requested convergence on             energy=1.00D-06.
 No special actions if energy rises.
 SCF Done:  E(RHF) =  -3038.25727937     A.U. after    8 cycles
            NFock=  8  Conv=0.16D-08     -V/T= 2.0018
 Calling FoFJK, ICntrl=      2127 FMM=F ISym2X=0 I1Cent= 0 IOpClX= 0 NMat=1 NMatS=1 NMatT=0.
 ***** Axes restored to original set *****
 -------------------------------------------------------------------
 Center     Atomic                   Forces (Hartrees/Bohr)
 Number     Number              X              Y              Z
 -------------------------------------------------------------------
      1        6           0.003843025   -0.000049350   -0.000056268
      2        1          -0.003819184   -0.004229488   -0.002464626
      3        1          -0.003831882    0.004273972   -0.002490312
      4        1          -0.003840318   -0.000000014    0.005002953
      5       35           0.016111379    0.000004625    0.000007432
      6       17          -0.008463019    0.000000254    0.000000821
 -------------------------------------------------------------------
 Cartesian Forces:  Max     0.016111379 RMS     0.005074184

 GradGradGradGradGradGradGradGradGradGradGradGradGradGradGradGradGradGrad
 Berny optimization.
 FormGI is forming the generalized inverse of G from B-inverse, IUseBI=4.
 Internal  Forces:  Max     0.008463019 RMS     0.003106704
 Search for a saddle point.
 Step number   3 out of a maximum of   36
 All quantities printed in internal units (Hartrees-Bohrs-Radians)
 Swapping is turned off.
 Update second derivatives using D2CorX and points    1    2    3
 ITU=  0  0  0
     Eigenvalues ---   -0.03930   0.01530   0.02261   0.02266   0.05305
     Eigenvalues ---    0.05328   0.08598   0.08644   0.10134   0.47702
     Eigenvalues ---    0.51522   0.52080
 Eigenvectors required to have negative eigenvalues:
                          R5        D1        R4        R6        R7
   1                   -0.54092   0.52108   0.51283   0.18246   0.18151
                          R8        A5        A3        A6        A8
   1                    0.18124   0.15172   0.15157   0.15132  -0.03270
 RFO step:  Lambda0=3.432973981D-06 Lambda=-3.78434715D-03.
 Linear search not attempted -- option 19 set.
 Maximum step size (   0.300) exceeded in Quadratic search.
    -- Step size scaled by   0.839
 Iteration  1 RMS(Cart)=  0.03120071 RMS(Int)=  0.00099421
 Iteration  2 RMS(Cart)=  0.00050286 RMS(Int)=  0.00081701
 Iteration  3 RMS(Cart)=  0.00000012 RMS(Int)=  0.00081701
 Variable       Old X    -DE/DX   Delta X   Delta X   Delta X     New X
                                 (Linear)    (Quad)   (Total)
    R1        2.03192   0.00556   0.00000   0.00680   0.00677   2.03869
    R2        2.03183   0.00553   0.00000   0.00680   0.00673   2.03856
    R3        2.03173   0.00551   0.00000   0.00671   0.00663   2.03836
    R4        4.66870  -0.00578   0.00000  -0.08857  -0.08833   4.58037
    R5        4.05322  -0.00846   0.00000  -0.09755  -0.09755   3.95567
    R6        5.00654  -0.00340   0.00000  -0.14826  -0.14832   4.85821
    R7        5.00679  -0.00338   0.00000  -0.14879  -0.14884   4.85795
    R8        5.00700  -0.00336   0.00000  -0.14935  -0.14940   4.85760
    A1        2.09108  -0.00002   0.00000  -0.00845  -0.01082   2.08026
    A2        2.09075  -0.00001   0.00000  -0.00447  -0.00681   2.08394
    A3        1.61603   0.00006   0.00000   0.03715   0.03716   1.65320
    A4        2.09076   0.00000   0.00000  -0.00446  -0.00680   2.08395
    A5        1.61599   0.00006   0.00000   0.03722   0.03722   1.65321
    A6        1.61597   0.00005   0.00000   0.03705   0.03705   1.65302
    A7        0.71755   0.00255   0.00000   0.02292   0.02311   0.74066
    A8        0.71744   0.00255   0.00000   0.02381   0.02405   0.74149
    A9        0.71741   0.00254   0.00000   0.02385   0.02408   0.74149
   A10        3.14148  -0.00001   0.00000   0.00030   0.00029   3.14177
   A11        3.14153   0.00000   0.00000   0.00026   0.00026   3.14179
    D1       -2.98540   0.00019   0.00000   0.12797   0.12724  -2.85816
    D2        2.09462  -0.00001   0.00000  -0.00266  -0.00269   2.09192
    D3       -2.09428   0.00000   0.00000  -0.00132  -0.00134  -2.09562
    D4        2.09428   0.00000   0.00000   0.00134   0.00136   2.09564
    D5       -0.56317  -0.00030   0.00000  -0.00421  -0.00432  -0.56749
    D6        0.56332   0.00029   0.00000   0.00214   0.00220   0.56552
    D7       -0.56335  -0.00029   0.00000  -0.00210  -0.00216  -0.56551
         Item               Value     Threshold  Converged?
 Maximum Force            0.008463     0.000450     NO 
 RMS     Force            0.003107     0.000300     NO 
 Maximum Displacement     0.127799     0.001800     NO 
 RMS     Displacement     0.031172     0.001200     NO 
 Predicted change in Energy=-2.041914D-03
 GradGradGradGradGradGradGradGradGradGradGradGradGradGradGradGradGradGrad

                          Input orientation:                          
 ---------------------------------------------------------------------
 Center     Atomic      Atomic             Coordinates (Angstroms)
 Number     Number       Type             X           Y           Z
 ---------------------------------------------------------------------
      1          6           0        0.883833   -0.000009    0.000351
      2          1           0        0.795144   -0.930473   -0.538396
      3          1           0        0.795087    0.930386   -0.538365
      4          1           0        0.795078   -0.000018    1.075346
      5         35           0       -1.539994    0.000069    0.000604
      6         17           0        2.977081    0.000047    0.000673
 ---------------------------------------------------------------------
                    Distance matrix (angstroms):
                    1          2          3          4          5
     1  C    0.000000
     2  H    1.078831   0.000000
     3  H    1.078761   1.860858   0.000000
     4  H    1.078652   1.862768   1.862717   0.000000
     5  Br   2.423827   2.570856   2.570716   2.570531   0.000000
     6  Cl   2.093248   2.432552   2.432528   2.432295   4.517075
                    6
     6  Cl   0.000000
 Stoichiometry    CH3BrCl(1-)
 Framework group  C1[X(CH3BrCl)]
 Deg. of freedom    12
 Full point group                 C1      NOp   1
 Largest Abelian subgroup         C1      NOp   1
 Largest concise Abelian subgroup C1      NOp   1
                         Standard orientation:                         
 ---------------------------------------------------------------------
 Center     Atomic      Atomic             Coordinates (Angstroms)
 Number     Number       Type             X           Y           Z
 ---------------------------------------------------------------------
      1          6           0       -0.811720   -0.000195   -0.000051
      2          1           0       -0.723039   -0.550041   -0.923999
      3          1           0       -0.722967   -0.527735    0.936725
      4          1           0       -0.722964    1.074723   -0.012929
      5         35           0        1.612107    0.000057    0.000006
      6         17           0       -2.904968    0.000130    0.000017
 ---------------------------------------------------------------------
 Rotational constants (GHZ):         144.6167802           0.9909987           0.9909895
 Standard basis: STO-3G (5D, 7F)
 There are    36 symmetry adapted cartesian basis functions of A   symmetry.
 There are    35 symmetry adapted basis functions of A   symmetry.
    35 basis functions,   108 primitive gaussians,    36 cartesian basis functions
    31 alpha electrons       31 beta electrons
       nuclear repulsion energy       183.7296843988 Hartrees.
 NAtoms=    6 NActive=    6 NUniq=    6 SFac= 1.00D+00 NAtFMM=   60 NAOKFM=F Big=F
 Integral buffers will be    131072 words long.
 Raffenetti 1 integral format.
 Two-electron integral symmetry is turned on.
 One-electron integrals computed using PRISM.
 NBasis=    35 RedAO= T EigKep=  2.49D-01  NBF=    35
 NBsUse=    35 1.00D-06 EigRej= -1.00D+00 NBFU=    35
 Initial guess from the checkpoint file:  "C:\Users\chemistry\Documents\Gruppe H\input‹Z.chk"
 B after Tr=     0.000000    0.000000    0.000000
         Rot=    0.736114   -0.676857    0.000000    0.000001 Ang= -85.20 deg.
 ExpMin= 1.69D-01 ExpMax= 2.63D+03 ExpMxC= 2.63D+03 IAcc=3 IRadAn=         5 AccDes= 0.00D+00
 Harris functional with IExCor=  205 and IRadAn=       5 diagonalized for initial guess.
 HarFok:  IExCor=  205 AccDes= 0.00D+00 IRadAn=         5 IDoV= 1 UseB2=F ITyADJ=14
 ICtDFT=  3500011 ScaDFX=  1.000000  1.000000  1.000000  1.000000
 FoFCou: FMM=F IPFlag=           0 FMFlag=      100000 FMFlg1=           0
         NFxFlg=           0 DoJE=T BraDBF=F KetDBF=T FulRan=T
         wScrn=  0.000000 ICntrl=       500 IOpCl=  0 I1Cent=   200000004 NGrid=           0
         NMat0=    1 NMatS0=      1 NMatT0=    0 NMatD0=    1 NMtDS0=    0 NMtDT0=    0
 Petite list used in FoFCou.
 Keep R1 ints in memory in canonical form, NReq=1031242.
 Requested convergence on RMS density matrix=1.00D-08 within 128 cycles.
 Requested convergence on MAX density matrix=1.00D-06.
 Requested convergence on             energy=1.00D-06.
 No special actions if energy rises.
 SCF Done:  E(RHF) =  -3038.25897264     A.U. after    8 cycles
            NFock=  8  Conv=0.41D-08     -V/T= 2.0018
 Calling FoFJK, ICntrl=      2127 FMM=F ISym2X=0 I1Cent= 0 IOpClX= 0 NMat=1 NMatS=1 NMatT=0.
 ***** Axes restored to original set *****
 -------------------------------------------------------------------
 Center     Atomic                   Forces (Hartrees/Bohr)
 Number     Number              X              Y              Z
 -------------------------------------------------------------------
      1        6           0.002113176   -0.000054115   -0.000455339
      2        1          -0.000296219   -0.000948228   -0.000296546
      3        1          -0.000294965    0.001005458   -0.000329420
      4        1          -0.000331035    0.000000210    0.001094500
      5       35          -0.000418097   -0.000002928   -0.000006974
      6       17          -0.000772859   -0.000000397   -0.000006222
 -------------------------------------------------------------------
 Cartesian Forces:  Max     0.002113176 RMS     0.000708551

 GradGradGradGradGradGradGradGradGradGradGradGradGradGradGradGradGradGrad
 Berny optimization.
 FormGI is forming the generalized inverse of G from B-inverse, IUseBI=4.
 Internal  Forces:  Max     0.000939074 RMS     0.000380531
 Search for a saddle point.
 Step number   4 out of a maximum of   36
 All quantities printed in internal units (Hartrees-Bohrs-Radians)
 Swapping is turned off.
 Update second derivatives using D2CorX and points    3    4
 ITU=  0  0  0  0
     Eigenvalues ---   -0.03864   0.02129   0.02261   0.02266   0.05304
     Eigenvalues ---    0.05327   0.08595   0.08641   0.10395   0.47695
     Eigenvalues ---    0.51521   0.52080
 Eigenvectors required to have negative eigenvalues:
                          R5        D1        R4        R6        R7
   1                   -0.55150   0.53065   0.50499   0.16025   0.15911
                          R8        A5        A3        A6        A1
   1                    0.15853   0.15679   0.15663   0.15623  -0.04526
 RFO step:  Lambda0=1.882792089D-05 Lambda=-8.99292984D-06.
 Linear search not attempted -- option 19 set.
 Iteration  1 RMS(Cart)=  0.00225239 RMS(Int)=  0.00000785
 Iteration  2 RMS(Cart)=  0.00000420 RMS(Int)=  0.00000552
 Iteration  3 RMS(Cart)=  0.00000000 RMS(Int)=  0.00000552
 Variable       Old X    -DE/DX   Delta X   Delta X   Delta X     New X
                                 (Linear)    (Quad)   (Total)
    R1        2.03869   0.00084   0.00000   0.00164   0.00164   2.04033
    R2        2.03856   0.00091   0.00000   0.00176   0.00176   2.04032
    R3        2.03836   0.00094   0.00000   0.00198   0.00198   2.04034
    R4        4.58037   0.00013   0.00000  -0.01342  -0.01343   4.56694
    R5        3.95567  -0.00077   0.00000   0.00918   0.00918   3.96485
    R6        4.85821   0.00015   0.00000  -0.00632  -0.00632   4.85190
    R7        4.85795   0.00015   0.00000  -0.00590  -0.00589   4.85206
    R8        4.85760   0.00016   0.00000  -0.00498  -0.00498   4.85262
    A1        2.08026   0.00011   0.00000   0.00374   0.00373   2.08399
    A2        2.08394  -0.00011   0.00000  -0.00057  -0.00058   2.08335
    A3        1.65320   0.00013   0.00000  -0.00312  -0.00312   1.65008
    A4        2.08395  -0.00012   0.00000  -0.00059  -0.00061   2.08334
    A5        1.65321   0.00013   0.00000  -0.00314  -0.00314   1.65007
    A6        1.65302   0.00017   0.00000  -0.00290  -0.00291   1.65011
    A7        0.74066   0.00034   0.00000   0.00248   0.00248   0.74314
    A8        0.74149   0.00029   0.00000   0.00147   0.00146   0.74295
    A9        0.74149   0.00030   0.00000   0.00145   0.00145   0.74293
   A10        3.14177  -0.00001   0.00000  -0.00034  -0.00034   3.14143
   A11        3.14179  -0.00002   0.00000  -0.00039  -0.00039   3.14140
    D1       -2.85816   0.00046   0.00000  -0.01082  -0.01082  -2.86898
    D2        2.09192   0.00015   0.00000   0.00290   0.00290   2.09482
    D3       -2.09562   0.00007   0.00000   0.00144   0.00143  -2.09419
    D4        2.09564  -0.00008   0.00000  -0.00146  -0.00146   2.09418
    D5       -0.56749   0.00003   0.00000   0.00133   0.00133  -0.56616
    D6        0.56552   0.00009   0.00000   0.00097   0.00097   0.56649
    D7       -0.56551  -0.00008   0.00000  -0.00100  -0.00100  -0.56651
         Item               Value     Threshold  Converged?
 Maximum Force            0.000939     0.000450     NO 
 RMS     Force            0.000381     0.000300     NO 
 Maximum Displacement     0.006802     0.001800     NO 
 RMS     Displacement     0.002252     0.001200     NO 
 Predicted change in Energy= 4.921579D-06
 GradGradGradGradGradGradGradGradGradGradGradGradGradGradGradGradGradGrad

                          Input orientation:                          
 ---------------------------------------------------------------------
 Center     Atomic      Atomic             Coordinates (Angstroms)
 Number     Number       Type             X           Y           Z
 ---------------------------------------------------------------------
      1          6           0        0.880233    0.000016    0.000060
      2          1           0        0.794644   -0.932205   -0.537887
      3          1           0        0.794693    0.932238   -0.537880
      4          1           0        0.794804    0.000021    1.076375
      5         35           0       -1.536487   -0.000041   -0.000279
      6         17           0        2.978340   -0.000027   -0.000173
 ---------------------------------------------------------------------
                    Distance matrix (angstroms):
                    1          2          3          4          5
     1  C    0.000000
     2  H    1.079698   0.000000
     3  H    1.079692   1.864443   0.000000
     4  H    1.079700   1.864105   1.864094   0.000000
     5  Br   2.416720   2.567513   2.567597   2.567898   0.000000
     6  Cl   2.098107   2.434465   2.434453   2.434499   4.514827
                    6
     6  Cl   0.000000
 Stoichiometry    CH3BrCl(1-)
 Framework group  C1[X(CH3BrCl)]
 Deg. of freedom    12
 Full point group                 C1      NOp   1
 Largest Abelian subgroup         C1      NOp   1
 Largest concise Abelian subgroup C1      NOp   1
                         Standard orientation:                         
 ---------------------------------------------------------------------
 Center     Atomic      Atomic             Coordinates (Angstroms)
 Number     Number       Type             X           Y           Z
 ---------------------------------------------------------------------
      1          6           0       -0.806130    0.000043   -0.000224
      2          1           0       -0.720518   -0.939243    0.525284
      3          1           0       -0.720576    0.925035    0.550053
      4          1           0       -0.720737    0.014351   -1.076447
      5         35           0        1.610590   -0.000005    0.000032
      6         17           0       -2.904237   -0.000013    0.000079
 ---------------------------------------------------------------------
 Rotational constants (GHZ):         144.2913946           0.9922500           0.9922484
 Standard basis: STO-3G (5D, 7F)
 There are    36 symmetry adapted cartesian basis functions of A   symmetry.
 There are    35 symmetry adapted basis functions of A   symmetry.
    35 basis functions,   108 primitive gaussians,    36 cartesian basis functions
    31 alpha electrons       31 beta electrons
       nuclear repulsion energy       183.8471229282 Hartrees.
 NAtoms=    6 NActive=    6 NUniq=    6 SFac= 1.00D+00 NAtFMM=   60 NAOKFM=F Big=F
 Integral buffers will be    131072 words long.
 Raffenetti 1 integral format.
 Two-electron integral symmetry is turned on.
 One-electron integrals computed using PRISM.
 NBasis=    35 RedAO= T EigKep=  2.49D-01  NBF=    35
 NBsUse=    35 1.00D-06 EigRej= -1.00D+00 NBFU=    35
 Initial guess from the checkpoint file:  "C:\Users\chemistry\Documents\Gruppe H\input‹Z.chk"
 B after Tr=     0.000000    0.000000    0.000000
         Rot=    0.715981    0.698120    0.000000   -0.000001 Ang=  88.55 deg.
 Keep R1 ints in memory in canonical form, NReq=1031242.
 Requested convergence on RMS density matrix=1.00D-08 within 128 cycles.
 Requested convergence on MAX density matrix=1.00D-06.
 Requested convergence on             energy=1.00D-06.
 No special actions if energy rises.
 SCF Done:  E(RHF) =  -3038.25896440     A.U. after    7 cycles
            NFock=  7  Conv=0.74D-08     -V/T= 2.0018
 Calling FoFJK, ICntrl=      2127 FMM=F ISym2X=0 I1Cent= 0 IOpClX= 0 NMat=1 NMatS=1 NMatT=0.
 ***** Axes restored to original set *****
 -------------------------------------------------------------------
 Center     Atomic                   Forces (Hartrees/Bohr)
 Number     Number              X              Y              Z
 -------------------------------------------------------------------
      1        6           0.000516041   -0.000008201    0.000039730
      2        1           0.000115110   -0.000087890   -0.000093835
      3        1           0.000109280    0.000093479   -0.000097746
      4        1           0.000100225   -0.000000594    0.000133743
      5       35          -0.000356717    0.000002590    0.000012306
      6       17          -0.000483940    0.000000615    0.000005803
 -------------------------------------------------------------------
 Cartesian Forces:  Max     0.000516041 RMS     0.000199656

 GradGradGradGradGradGradGradGradGradGradGradGradGradGradGradGradGradGrad
 Berny optimization.
 FormGI is forming the generalized inverse of G from B-inverse, IUseBI=4.
 Internal  Forces:  Max     0.000483941 RMS     0.000106745
 Search for a saddle point.
 Step number   5 out of a maximum of   36
 All quantities printed in internal units (Hartrees-Bohrs-Radians)
 Swapping is turned off.
 Update second derivatives using D2CorX and points    3    4    5
 ITU=  0  0  0  0  0
     Eigenvalues ---   -0.02523   0.02256   0.02263   0.02500   0.05276
     Eigenvalues ---    0.05319   0.08596   0.08642   0.10804   0.47627
     Eigenvalues ---    0.51520   0.52079
 Eigenvectors required to have negative eigenvalues:
                          D1        R4        R5        A6        A5
   1                    0.62593   0.50316  -0.45927   0.18643   0.18446
                          A3        R8        R7        R6        A4
   1                    0.18433   0.11272   0.09655   0.09351  -0.05426
 RFO step:  Lambda0=2.790608095D-06 Lambda=-2.86885229D-06.
 Linear search not attempted -- option 19 set.
 Iteration  1 RMS(Cart)=  0.00123624 RMS(Int)=  0.00000654
 Iteration  2 RMS(Cart)=  0.00000279 RMS(Int)=  0.00000581
 Iteration  3 RMS(Cart)=  0.00000000 RMS(Int)=  0.00000581
 Variable       Old X    -DE/DX   Delta X   Delta X   Delta X     New X
                                 (Linear)    (Quad)   (Total)
    R1        2.04033   0.00007   0.00000   0.00022   0.00022   2.04055
    R2        2.04032   0.00008   0.00000   0.00023   0.00023   2.04055
    R3        2.04034   0.00009   0.00000   0.00022   0.00022   2.04056
    R4        4.56694   0.00007   0.00000  -0.00411  -0.00411   4.56283
    R5        3.96485  -0.00048   0.00000   0.00165   0.00165   3.96650
    R6        4.85190   0.00012   0.00000   0.00271   0.00271   4.85460
    R7        4.85206   0.00011   0.00000   0.00250   0.00250   4.85455
    R8        4.85262   0.00009   0.00000   0.00152   0.00151   4.85414
    A1        2.08399  -0.00002   0.00000   0.00067   0.00066   2.08465
    A2        2.08335   0.00001   0.00000   0.00091   0.00090   2.08425
    A3        1.65008   0.00000   0.00000  -0.00306  -0.00306   1.64702
    A4        2.08334   0.00001   0.00000   0.00093   0.00091   2.08425
    A5        1.65007  -0.00001   0.00000  -0.00306  -0.00306   1.64701
    A6        1.65011  -0.00002   0.00000  -0.00312  -0.00312   1.64699
    A7        0.74314   0.00000   0.00000  -0.00018  -0.00018   0.74295
    A8        0.74295   0.00002   0.00000  -0.00005  -0.00005   0.74290
    A9        0.74293   0.00002   0.00000  -0.00003  -0.00003   0.74290
   A10        3.14143   0.00001   0.00000   0.00026   0.00026   3.14169
   A11        3.14140   0.00001   0.00000   0.00033   0.00033   3.14173
    D1       -2.86898  -0.00003   0.00000  -0.01041  -0.01042  -2.87940
    D2        2.09482  -0.00002   0.00000  -0.00016  -0.00016   2.09466
    D3       -2.09419  -0.00001   0.00000  -0.00007  -0.00007  -2.09426
    D4        2.09418   0.00001   0.00000   0.00009   0.00009   2.09426
    D5       -0.56616  -0.00002   0.00000  -0.00011  -0.00011  -0.56627
    D6        0.56649   0.00000   0.00000   0.00000   0.00000   0.56649
    D7       -0.56651   0.00000   0.00000   0.00002   0.00002  -0.56649
         Item               Value     Threshold  Converged?
 Maximum Force            0.000484     0.000450     NO 
 RMS     Force            0.000107     0.000300     YES
 Maximum Displacement     0.004083     0.001800     NO 
 RMS     Displacement     0.001236     0.001200     NO 
 Predicted change in Energy=-3.872150D-08
 GradGradGradGradGradGradGradGradGradGradGradGradGradGradGradGradGradGrad

                          Input orientation:                          
 ---------------------------------------------------------------------
 Center     Atomic      Atomic             Coordinates (Angstroms)
 Number     Number       Type             X           Y           Z
 ---------------------------------------------------------------------
      1          6           0        0.878073   -0.000006   -0.000065
      2          1           0        0.795906   -0.932510   -0.538288
      3          1           0        0.795896    0.932497   -0.538288
      4          1           0        0.795775   -0.000008    1.076611
      5         35           0       -1.536473    0.000017    0.000118
      6         17           0        2.977052    0.000011    0.000127
 ---------------------------------------------------------------------
                    Distance matrix (angstroms):
                    1          2          3          4          5
     1  C    0.000000
     2  H    1.079814   0.000000
     3  H    1.079814   1.865007   0.000000
     4  H    1.079817   1.864795   1.864796   0.000000
     5  Br   2.414546   2.568946   2.568919   2.568700   0.000000
     6  Cl   2.098980   2.432465   2.432460   2.432445   4.513526
                    6
     6  Cl   0.000000
 Stoichiometry    CH3BrCl(1-)
 Framework group  C1[X(CH3BrCl)]
 Deg. of freedom    12
 Full point group                 C1      NOp   1
 Largest Abelian subgroup         C1      NOp   1
 Largest concise Abelian subgroup C1      NOp   1
                         Standard orientation:                         
 ---------------------------------------------------------------------
 Center     Atomic      Atomic             Coordinates (Angstroms)
 Number     Number       Type             X           Y           Z
 ---------------------------------------------------------------------
      1          6           0       -0.804477   -0.000016    0.000160
      2          1           0       -0.722314   -0.931228    0.540616
      3          1           0       -0.722301    0.933773    0.536147
      4          1           0       -0.722175   -0.002598   -1.076513
      5         35           0        1.610069    0.000002   -0.000015
      6         17           0       -2.903457    0.000005   -0.000040
 ---------------------------------------------------------------------
 Rotational constants (GHZ):         144.1905717           0.9928630           0.9928620
 Standard basis: STO-3G (5D, 7F)
 There are    36 symmetry adapted cartesian basis functions of A   symmetry.
 There are    35 symmetry adapted basis functions of A   symmetry.
    35 basis functions,   108 primitive gaussians,    36 cartesian basis functions
    31 alpha electrons       31 beta electrons
       nuclear repulsion energy       183.8958697584 Hartrees.
 NAtoms=    6 NActive=    6 NUniq=    6 SFac= 1.00D+00 NAtFMM=   60 NAOKFM=F Big=F
 Integral buffers will be    131072 words long.
 Raffenetti 1 integral format.
 Two-electron integral symmetry is turned on.
 One-electron integrals computed using PRISM.
 NBasis=    35 RedAO= T EigKep=  2.49D-01  NBF=    35
 NBsUse=    35 1.00D-06 EigRej= -1.00D+00 NBFU=    35
 Initial guess from the checkpoint file:  "C:\Users\chemistry\Documents\Gruppe H\input‹Z.chk"
 B after Tr=     0.000000    0.000000    0.000000
         Rot=    0.999969    0.007842    0.000001    0.000000 Ang=   0.90 deg.
 Keep R1 ints in memory in canonical form, NReq=1031242.
 Requested convergence on RMS density matrix=1.00D-08 within 128 cycles.
 Requested convergence on MAX density matrix=1.00D-06.
 Requested convergence on             energy=1.00D-06.
 No special actions if energy rises.
 SCF Done:  E(RHF) =  -3038.25896397     A.U. after    7 cycles
            NFock=  7  Conv=0.57D-08     -V/T= 2.0018
 Calling FoFJK, ICntrl=      2127 FMM=F ISym2X=0 I1Cent= 0 IOpClX= 0 NMat=1 NMatS=1 NMatT=0.
 ***** Axes restored to original set *****
 -------------------------------------------------------------------
 Center     Atomic                   Forces (Hartrees/Bohr)
 Number     Number              X              Y              Z
 -------------------------------------------------------------------
      1        6           0.000025326    0.000000934    0.000057167
      2        1          -0.000065043    0.000026518   -0.000012114
      3        1          -0.000064061   -0.000026225   -0.000012101
      4        1          -0.000050820    0.000000158   -0.000019308
      5       35          -0.000010067   -0.000000856   -0.000008831
      6       17           0.000164664   -0.000000529   -0.000004814
 -------------------------------------------------------------------
 Cartesian Forces:  Max     0.000164664 RMS     0.000049555

 GradGradGradGradGradGradGradGradGradGradGradGradGradGradGradGradGradGrad
 Berny optimization.
 FormGI is forming the generalized inverse of G from B-inverse, IUseBI=4.
 Internal  Forces:  Max     0.000164663 RMS     0.000037524
 Search for a saddle point.
 Step number   6 out of a maximum of   36
 All quantities printed in internal units (Hartrees-Bohrs-Radians)
 Swapping is turned off.
 Update second derivatives using D2CorX and points    3    4    5    6
 ITU=  0  0  0  0  0  0
     Eigenvalues ---   -0.03136   0.02249   0.02262   0.02567   0.05311
     Eigenvalues ---    0.05347   0.08597   0.08643   0.12116   0.47675
     Eigenvalues ---    0.51520   0.52079
 Eigenvectors required to have negative eigenvalues:
                          D1        R5        R4        A3        A5
   1                    0.59058  -0.52101   0.49141   0.17526   0.17485
                          A6        R8        R7        R6        A4
   1                    0.17406   0.11509   0.10931   0.10720  -0.05408
 RFO step:  Lambda0=8.173008676D-09 Lambda=-3.35577424D-07.
 Linear search not attempted -- option 19 set.
 Iteration  1 RMS(Cart)=  0.00031859 RMS(Int)=  0.00000010
 Iteration  2 RMS(Cart)=  0.00000005 RMS(Int)=  0.00000008
 Variable       Old X    -DE/DX   Delta X   Delta X   Delta X     New X
                                 (Linear)    (Quad)   (Total)
    R1        2.04055  -0.00001   0.00000  -0.00001  -0.00001   2.04054
    R2        2.04055  -0.00001   0.00000  -0.00001  -0.00001   2.04054
    R3        2.04056  -0.00001   0.00000  -0.00002  -0.00002   2.04054
    R4        4.56283   0.00004   0.00000   0.00036   0.00036   4.56319
    R5        3.96650   0.00016   0.00000   0.00098   0.00098   3.96747
    R6        4.85460  -0.00002   0.00000  -0.00058  -0.00058   4.85403
    R7        4.85455  -0.00001   0.00000  -0.00054  -0.00054   4.85401
    R8        4.85414   0.00000   0.00000  -0.00009  -0.00009   4.85405
    A1        2.08465  -0.00002   0.00000  -0.00038  -0.00038   2.08427
    A2        2.08425   0.00000   0.00000   0.00004   0.00004   2.08429
    A3        1.64702   0.00002   0.00000   0.00036   0.00036   1.64738
    A4        2.08425   0.00000   0.00000   0.00004   0.00004   2.08429
    A5        1.64701   0.00002   0.00000   0.00037   0.00037   1.64738
    A6        1.64699   0.00003   0.00000   0.00041   0.00041   1.64740
    A7        0.74295   0.00000   0.00000   0.00000   0.00000   0.74296
    A8        0.74290   0.00000   0.00000   0.00006   0.00006   0.74296
    A9        0.74290   0.00000   0.00000   0.00005   0.00005   0.74296
   A10        3.14169  -0.00001   0.00000  -0.00011  -0.00011   3.14158
   A11        3.14173  -0.00001   0.00000  -0.00016  -0.00016   3.14157
    D1       -2.87940   0.00007   0.00000   0.00133   0.00133  -2.87807
    D2        2.09466  -0.00001   0.00000  -0.00028  -0.00028   2.09438
    D3       -2.09426  -0.00001   0.00000  -0.00014  -0.00014  -2.09440
    D4        2.09426   0.00001   0.00000   0.00014   0.00014   2.09440
    D5       -0.56627   0.00000   0.00000  -0.00014  -0.00014  -0.56641
    D6        0.56649  -0.00001   0.00000  -0.00009  -0.00009   0.56640
    D7       -0.56649   0.00000   0.00000   0.00009   0.00009  -0.56640
         Item               Value     Threshold  Converged?
 Maximum Force            0.000165     0.000450     YES
 RMS     Force            0.000038     0.000300     YES
 Maximum Displacement     0.001259     0.001800     YES
 RMS     Displacement     0.000319     0.001200     YES
 Predicted change in Energy=-1.637027D-07
 Optimization completed.
    -- Stationary point found.
                           ----------------------------
                           !   Optimized Parameters   !
                           ! (Angstroms and Degrees)  !
 --------------------------                            --------------------------
 ! Name  Definition              Value          Derivative Info.                !
 --------------------------------------------------------------------------------
 ! R1    R(1,2)                  1.0798         -DE/DX =    0.0                 !
 ! R2    R(1,3)                  1.0798         -DE/DX =    0.0                 !
 ! R3    R(1,4)                  1.0798         -DE/DX =    0.0                 !
 ! R4    R(1,5)                  2.4145         -DE/DX =    0.0                 !
 ! R5    R(1,6)                  2.099          -DE/DX =    0.0002              !
 ! R6    R(2,5)                  2.5689         -DE/DX =    0.0                 !
 ! R7    R(3,5)                  2.5689         -DE/DX =    0.0                 !
 ! R8    R(4,5)                  2.5687         -DE/DX =    0.0                 !
 ! A1    A(2,1,3)              119.4414         -DE/DX =    0.0                 !
 ! A2    A(2,1,4)              119.4188         -DE/DX =    0.0                 !
 ! A3    A(2,1,6)               94.3671         -DE/DX =    0.0                 !
 ! A4    A(3,1,4)              119.419          -DE/DX =    0.0                 !
 ! A5    A(3,1,6)               94.3668         -DE/DX =    0.0                 !
 ! A6    A(4,1,6)               94.3658         -DE/DX =    0.0                 !
 ! A7    A(2,5,3)               42.5682         -DE/DX =    0.0                 !
 ! A8    A(2,5,4)               42.565          -DE/DX =    0.0                 !
 ! A9    A(3,5,4)               42.5653         -DE/DX =    0.0                 !
 ! A10   L(5,1,6,2,-1)         180.0057         -DE/DX =    0.0                 !
 ! A11   L(5,1,6,2,-2)         180.0078         -DE/DX =    0.0                 !
 ! D1    D(2,1,4,3)           -164.9775         -DE/DX =    0.0001              !
 ! D2    D(2,1,6,3)            120.0153         -DE/DX =    0.0                 !
 ! D3    D(2,1,6,4)           -119.9923         -DE/DX =    0.0                 !
 ! D4    D(3,1,6,4)            119.9924         -DE/DX =    0.0                 !
 ! D5    D(3,2,5,1)            -32.4449         -DE/DX =    0.0                 !
 ! D6    D(4,2,5,1)             32.4575         -DE/DX =    0.0                 !
 ! D7    D(4,3,5,1)            -32.4572         -DE/DX =    0.0                 !
 --------------------------------------------------------------------------------
 GradGradGradGradGradGradGradGradGradGradGradGradGradGradGradGradGradGrad

                          Input orientation:                          
 ---------------------------------------------------------------------
 Center     Atomic      Atomic             Coordinates (Angstroms)
 Number     Number       Type             X           Y           Z
 ---------------------------------------------------------------------
      1          6           0        0.878073   -0.000006   -0.000065
      2          1           0        0.795906   -0.932510   -0.538288
      3          1           0        0.795896    0.932497   -0.538288
      4          1           0        0.795775   -0.000008    1.076611
      5         35           0       -1.536473    0.000017    0.000118
      6         17           0        2.977052    0.000011    0.000127
 ---------------------------------------------------------------------
                    Distance matrix (angstroms):
                    1          2          3          4          5
     1  C    0.000000
     2  H    1.079814   0.000000
     3  H    1.079814   1.865007   0.000000
     4  H    1.079817   1.864795   1.864796   0.000000
     5  Br   2.414546   2.568946   2.568919   2.568700   0.000000
     6  Cl   2.098980   2.432465   2.432460   2.432445   4.513526
                    6
     6  Cl   0.000000
 Stoichiometry    CH3BrCl(1-)
 Framework group  C1[X(CH3BrCl)]
 Deg. of freedom    12
 Full point group                 C1      NOp   1
 Largest Abelian subgroup         C1      NOp   1
 Largest concise Abelian subgroup C1      NOp   1
                         Standard orientation:                         
 ---------------------------------------------------------------------
 Center     Atomic      Atomic             Coordinates (Angstroms)
 Number     Number       Type             X           Y           Z
 ---------------------------------------------------------------------
      1          6           0       -0.804477   -0.000016    0.000160
      2          1           0       -0.722314   -0.931228    0.540616
      3          1           0       -0.722301    0.933773    0.536147
      4          1           0       -0.722175   -0.002598   -1.076513
      5         35           0        1.610069    0.000002   -0.000015
      6         17           0       -2.903457    0.000005   -0.000040
 ---------------------------------------------------------------------
 Rotational constants (GHZ):         144.1905717           0.9928630           0.9928620

 **********************************************************************

            Population analysis using the SCF Density.

 **********************************************************************

 Orbital symmetries:
       Occupied  (A) (A) (A) (A) (A) (A) (A) (A) (A) (A) (A) (A)
                 (A) (A) (A) (A) (A) (A) (A) (A) (A) (A) (A) (A)
                 (A) (A) (A) (A) (A) (A) (A)
       Virtual   (A) (A) (A) (A)
 The electronic state is 1-A.
 Alpha  occ. eigenvalues -- -484.01693-103.30036 -62.75337 -57.30192 -57.30112
 Alpha  occ. eigenvalues --  -57.30112 -10.94647 -10.00869  -8.72168  -7.45118
 Alpha  occ. eigenvalues --   -7.44822  -7.44822  -6.46896  -6.46461  -6.46461
 Alpha  occ. eigenvalues --   -1.82191  -1.82043  -1.82043  -1.81618  -1.81618
 Alpha  occ. eigenvalues --   -0.78943  -0.66826  -0.51368  -0.41514  -0.41509
 Alpha  occ. eigenvalues --   -0.19192  -0.12649  -0.12649  -0.01246  -0.01245
 Alpha  occ. eigenvalues --    0.01268
 Alpha virt. eigenvalues --    0.47717   0.79569   0.88929   0.88941
          Condensed to atoms (all electrons):
               1          2          3          4          5          6
     1  C    4.691719   0.398105   0.398106   0.398103   0.053291   0.090495
     2  H    0.398105   0.559640  -0.015803  -0.015813  -0.014514  -0.020401
     3  H    0.398106  -0.015803   0.559638  -0.015813  -0.014515  -0.020402
     4  H    0.398103  -0.015813  -0.015813   0.559656  -0.014520  -0.020401
     5  Br   0.053291  -0.014514  -0.014515  -0.014520  35.702357   0.000655
     6  Cl   0.090495  -0.020401  -0.020402  -0.020401   0.000655  17.553847
 Mulliken charges:
               1
     1  C   -0.029818
     2  H    0.108787
     3  H    0.108789
     4  H    0.108789
     5  Br  -0.712754
     6  Cl  -0.583792
 Sum of Mulliken charges =  -1.00000
 Mulliken charges with hydrogens summed into heavy atoms:
               1
     1  C    0.296547
     5  Br  -0.712754
     6  Cl  -0.583792
 Electronic spatial extent (au):  <R**2>=            972.9638
 Charge=             -1.0000 electrons
 Dipole moment (field-independent basis, Debye):
    X=              1.6029    Y=              0.0000    Z=              0.0004  Tot=              1.6029
 Quadrupole moment (field-independent basis, Debye-Ang):
   XX=            -69.9847   YY=            -35.8294   ZZ=            -35.8300
   XY=              0.0001   XZ=             -0.0005   YZ=              0.0000
 Traceless Quadrupole moment (field-independent basis, Debye-Ang):
   XX=            -22.7700   YY=             11.3853   ZZ=             11.3847
   XY=              0.0001   XZ=             -0.0005   YZ=              0.0000
 Octapole moment (field-independent basis, Debye-Ang**2):
  XXX=             96.5405  YYY=              0.0058  ZZZ=             -0.8009  XYY=             12.4892
  XXY=             -0.0001  XXZ=              0.0009  XZZ=             12.4898  YZZ=             -0.0057
  YYZ=              0.8003  XYZ=              0.0000
 Hexadecapole moment (field-independent basis, Debye-Ang**3):
 XXXX=          -1163.0386 YYYY=            -36.7824 ZZZZ=            -36.7818 XXXY=              0.0003
 XXXZ=             -0.0028 YYYX=             -0.0039 YYYZ=              0.0000 ZZZX=              0.5568
 ZZZY=              0.0000 XXYY=           -163.5296 XXZZ=           -163.5298 YYZZ=            -12.2606
 XXYZ=              0.0000 YYXZ=             -0.5577 ZZXY=              0.0040
 N-N= 1.838958697584D+02 E-N=-7.665662709921D+03  KE= 3.032855635339D+03
 Unable to Open any file for archive entry.
 1|1|UNPC-LAPTOP-PP56KN09|FTS|RHF|STO-3G|C1H3Br1Cl1(1-)|CHEMISTRY|01-De
 c-2022|0||# opt=(calcfc,ts) freq hf/sto-3g geom=connectivity||Title Ca
 rd Required||-1,1|C,0.8780725232,-0.0000059231,-0.0000654344|H,0.79590
 60734,-0.9325101116,-0.5382881482|H,0.7958962073,0.9324965691,-0.53828
 8015|H,0.7957745205,-0.0000080787,1.0766109636|Br,-1.5364734248,0.0000
 170549,0.0001180675|Cl,2.9770521004,0.0000114893,0.0001265666||Version
 =EM64W-G16RevC.01|State=1-A|HF=-3038.258964|RMSD=5.725e-009|RMSF=4.955
 e-005|Dipole=-0.6306413,-0.0000171,-0.0001357|Quadrupole=-16.9289328,8
 .4646915,8.4642414,0.0000026,-0.0003037,-0.0000034|PG=C01 [X(C1H3Br1Cl
 1)]||@
 The archive entry for this job was punched.


 THEORY:  SUPPOSITION WHICH HAS SCIENTIFIC BASIS,
          BUT NOT EXPERIMENTALLY PROVEN.
 FACT:    A THEORY WHICH HAS BEEN PROVEN BY ENOUGH 
          MONEY TO PAY FOR THE EXPERIMENTS.

                          --  THE WIZARD OF ID
 Job cpu time:       0 days  0 hours  0 minutes 10.0 seconds.
 Elapsed time:       0 days  0 hours  0 minutes  6.4 seconds.
 File lengths (MBytes):  RWF=      6 Int=      0 D2E=      0 Chk=      2 Scr=      1
 Normal termination of Gaussian 16 at Thu Dec 01 11:34:51 2022.
 Link1:  Proceeding to internal job step number  2.
 ---------------------------------------------------------------
 #N Geom=AllCheck Guess=TCheck SCRF=Check GenChk RHF/STO-3G Freq
 ---------------------------------------------------------------
 1/5=1,10=4,29=7,30=1,38=1,40=1/1,3;
 2/12=2,40=1/2;
 3/6=3,11=1,14=-4,25=1,30=1,70=2,71=2,116=1,140=1/1,2,3;
 4/5=101/1;
 5/5=2,38=6,98=1/2;
 8/6=4,10=90,11=11/1;
 10/13=10,15=4/2;
 11/6=3,8=1,9=11,15=111,16=1/1,2,10;
 10/6=1/2;
 6/7=2,8=2,9=2,10=2,28=1/1;
 7/8=1,10=1,25=1/1,2,3,16;
 1/5=1,10=4,30=1/3;
 99//99;
 Structure from the checkpoint file:  "C:\Users\chemistry\Documents\Gruppe H\input‹Z.chk"
 -------------------
 Title Card Required
 -------------------
 Charge = -1 Multiplicity = 1
 Redundant internal coordinates found in file.  (old form).
 C,0,0.8780725232,-0.0000059231,-0.0000654344
 H,0,0.7959060734,-0.9325101116,-0.5382881482
 H,0,0.7958962073,0.9324965691,-0.538288015
 H,0,0.7957745205,-0.0000080787,1.0766109636
 Br,0,-1.5364734248,0.0000170549,0.0001180675
 Cl,0,2.9770521004,0.0000114893,0.0001265666
 Recover connectivity data from disk.

 GradGradGradGradGradGradGradGradGradGradGradGradGradGradGradGradGradGrad
 Berny optimization.
 Initialization pass.
                           ----------------------------
                           !    Initial Parameters    !
                           ! (Angstroms and Degrees)  !
 --------------------------                            --------------------------
[...]
 Electronic               0.000              0.000              0.000
 Translational            0.889              2.981             40.475
 Rotational               0.889              2.981             25.228
 Vibrational             28.348              5.703              4.648
 Vibration     1          0.681              1.708              1.525
 Vibration     2          0.681              1.708              1.525
 Vibration     3          0.684              1.698              1.491
                       Q            Log10(Q)             Ln(Q)
 Total Bot       0.722748D-07         -7.141013        -16.442790
 Total V=0       0.101977D+14         13.008504         29.953188
 Vib (Bot)       0.172580D-19        -19.763011        -45.506014
 Vib (Bot)    1  0.682786D+00         -0.165715         -0.381573
 Vib (Bot)    2  0.682768D+00         -0.165727         -0.381600
 Vib (Bot)    3  0.667121D+00         -0.175796         -0.404785
 Vib (V=0)       0.243504D+01          0.386507          0.889964
 Vib (V=0)    1  0.134628D+01          0.129137          0.297349
 Vib (V=0)    2  0.134627D+01          0.129132          0.297337
 Vib (V=0)    3  0.133370D+01          0.125057          0.287954
 Electronic      0.100000D+01          0.000000          0.000000
 Translational   0.575290D+08          7.759887         17.867800
 Rotational      0.727965D+05          4.862110         11.195423
 ***** Axes restored to original set *****
 -------------------------------------------------------------------
 Center     Atomic                   Forces (Hartrees/Bohr)
 Number     Number              X              Y              Z
 -------------------------------------------------------------------
      1        6           0.000025326    0.000000934    0.000057165
      2        1          -0.000065043    0.000026517   -0.000012115
      3        1          -0.000064061   -0.000026224   -0.000012101
      4        1          -0.000050820    0.000000158   -0.000019307
      5       35          -0.000010066   -0.000000856   -0.000008830
      6       17           0.000164664   -0.000000529   -0.000004812
 -------------------------------------------------------------------
 Cartesian Forces:  Max     0.000164664 RMS     0.000049555
 FormGI is forming the generalized inverse of G from B-inverse, IUseBI=4.

 GradGradGradGradGradGradGradGradGradGradGradGradGradGradGradGradGradGrad
 Berny optimization.
 Internal  Forces:  Max     0.000164664 RMS     0.000037524
 Search for a saddle point.
 Step number   1 out of a maximum of    2
 All quantities printed in internal units (Hartrees-Bohrs-Radians)
 Swapping is turned off.
 Second derivative matrix not updated -- analytic derivatives used.
 ITU=  0
     Eigenvalues ---   -0.02607   0.02679   0.03534   0.03573   0.05183
     Eigenvalues ---    0.05254   0.12444   0.12481   0.15297   0.42420
     Eigenvalues ---    0.46512   0.47078
 Eigenvectors required to have negative eigenvalues:
                          D1        R4        R5        A6        A5
   1                    0.62208   0.50852  -0.45450   0.18404   0.18350
                          A3        R6        R7        R8        A4
   1                    0.18344   0.11142   0.11111   0.11087  -0.05254
 Angle between quadratic step and forces=  34.41 degrees.
 Linear search not attempted -- option 19 set.
 Iteration  1 RMS(Cart)=  0.00027192 RMS(Int)=  0.00000005
 Iteration  2 RMS(Cart)=  0.00000003 RMS(Int)=  0.00000004
 Variable       Old X    -DE/DX   Delta X   Delta X   Delta X     New X
                                 (Linear)    (Quad)   (Total)
    R1        2.04055  -0.00001   0.00000  -0.00002  -0.00002   2.04054
    R2        2.04055  -0.00001   0.00000  -0.00002  -0.00002   2.04054
    R3        2.04056  -0.00001   0.00000  -0.00002  -0.00002   2.04054
    R4        4.56283   0.00004   0.00000  -0.00001  -0.00001   4.56282
    R5        3.96650   0.00016   0.00000   0.00100   0.00100   3.96750
    R6        4.85460  -0.00002   0.00000  -0.00066  -0.00066   4.85395
    R7        4.85455  -0.00001   0.00000  -0.00061  -0.00061   4.85395
    R8        4.85414   0.00000   0.00000  -0.00019  -0.00019   4.85395
    A1        2.08465  -0.00002   0.00000  -0.00033  -0.00033   2.08432
    A2        2.08425   0.00000   0.00000   0.00007   0.00007   2.08432
    A3        1.64702   0.00002   0.00000   0.00024   0.00024   1.64725
    A4        2.08425   0.00000   0.00000   0.00006   0.00006   2.08432
    A5        1.64701   0.00002   0.00000   0.00024   0.00024   1.64725
    A6        1.64699   0.00003   0.00000   0.00026   0.00026   1.64725
    A7        0.74295   0.00000   0.00000   0.00002   0.00002   0.74298
    A8        0.74290   0.00000   0.00000   0.00008   0.00008   0.74298
    A9        0.74290   0.00000   0.00000   0.00007   0.00007   0.74298
   A10        3.14169  -0.00001   0.00000  -0.00010  -0.00010   3.14159
   A11        3.14173  -0.00001   0.00000  -0.00014  -0.00014   3.14159
    D1       -2.87940   0.00007   0.00000   0.00088   0.00088  -2.87852
    D2        2.09466  -0.00001   0.00000  -0.00027  -0.00027   2.09440
    D3       -2.09426  -0.00001   0.00000  -0.00013  -0.00013  -2.09440
    D4        2.09426   0.00001   0.00000   0.00013   0.00013   2.09440
    D5       -0.56627   0.00000   0.00000  -0.00013  -0.00013  -0.56641
    D6        0.56649  -0.00001   0.00000  -0.00009  -0.00009   0.56641
    D7       -0.56649   0.00000   0.00000   0.00008   0.00008  -0.56641
         Item               Value     Threshold  Converged?
 Maximum Force            0.000165     0.000450     YES
 RMS     Force            0.000038     0.000300     YES
 Maximum Displacement     0.001083     0.001800     YES
 RMS     Displacement     0.000272     0.001200     YES
 Predicted change in Energy=-1.384851D-07
 Optimization completed.
    -- Stationary point found.
                           ----------------------------
                           !   Optimized Parameters   !
                           ! (Angstroms and Degrees)  !
 --------------------------                            --------------------------
 ! Name  Definition              Value          Derivative Info.                !
 --------------------------------------------------------------------------------
 ! R1    R(1,2)                  1.0798         -DE/DX =    0.0                 !
 ! R2    R(1,3)                  1.0798         -DE/DX =    0.0                 !
 ! R3    R(1,4)                  1.0798         -DE/DX =    0.0                 !
 ! R4    R(1,5)                  2.4145         -DE/DX =    0.0                 !
 ! R5    R(1,6)                  2.099          -DE/DX =    0.0002              !
 ! R6    R(2,5)                  2.5689         -DE/DX =    0.0                 !
 ! R7    R(3,5)                  2.5689         -DE/DX =    0.0                 !
 ! R8    R(4,5)                  2.5687         -DE/DX =    0.0                 !
 ! A1    A(2,1,3)              119.4414         -DE/DX =    0.0                 !
 ! A2    A(2,1,4)              119.4188         -DE/DX =    0.0                 !
 ! A3    A(2,1,6)               94.3671         -DE/DX =    0.0                 !
 ! A4    A(3,1,4)              119.419          -DE/DX =    0.0                 !
 ! A5    A(3,1,6)               94.3668         -DE/DX =    0.0                 !
 ! A6    A(4,1,6)               94.3658         -DE/DX =    0.0                 !
 ! A7    A(2,5,3)               42.5682         -DE/DX =    0.0                 !
 ! A8    A(2,5,4)               42.565          -DE/DX =    0.0                 !
 ! A9    A(3,5,4)               42.5653         -DE/DX =    0.0                 !
 ! A10   L(5,1,6,2,-1)         180.0057         -DE/DX =    0.0                 !
 ! A11   L(5,1,6,2,-2)         180.0078         -DE/DX =    0.0                 !
 ! D1    D(2,1,4,3)           -164.9775         -DE/DX =    0.0001              !
 ! D2    D(2,1,6,3)            120.0153         -DE/DX =    0.0                 !
 ! D3    D(2,1,6,4)           -119.9923         -DE/DX =    0.0                 !
 ! D4    D(3,1,6,4)            119.9924         -DE/DX =    0.0                 !
 ! D5    D(3,2,5,1)            -32.4449         -DE/DX =    0.0                 !
 ! D6    D(4,2,5,1)             32.4575         -DE/DX =    0.0                 !
 ! D7    D(4,3,5,1)            -32.4572         -DE/DX =    0.0                 !
 --------------------------------------------------------------------------------
 GradGradGradGradGradGradGradGradGradGradGradGradGradGradGradGradGradGrad


 ----------------------------------------------------------------------

 Electric dipole moment (input orientation):
 (Debye = 10**-18 statcoulomb cm , SI units = C m)
                  (au)            (Debye)         (10**-30 SI)
   Tot        0.630641D+00      0.160293D+01      0.534680D+01
   x         -0.630641D+00     -0.160293D+01     -0.534680D+01
   y         -0.171500D-04     -0.435909D-04     -0.145404D-03
   z         -0.135677D-03     -0.344856D-03     -0.115032D-02

 Dipole polarizability, Alpha (input orientation).
 (esu units = cm**3 , SI units = C**2 m**2 J**-1)
 Alpha(0;0):
               (au)            (10**-24 esu)      (10**-40 SI)
   iso        0.226783D+02      0.336057D+01      0.373914D+01
   aniso      0.504098D+02      0.746996D+01      0.831145D+01
   xx         0.562848D+02      0.834054D+01      0.928011D+01
   yx        -0.864910D-04     -0.128166D-04     -0.142604D-04
   yy         0.587583D+01      0.870708D+00      0.968794D+00
   zx        -0.156984D-03     -0.232626D-04     -0.258831D-04
   zy         0.000000D+00      0.000000D+00      0.000000D+00
   zz         0.587415D+01      0.870459D+00      0.968517D+00

 First dipole hyperpolarizability, Beta (input orientation).
 ||, _|_  parallel and perpendicular components, (z) with respect to z axis,
 vector components x,y,z.  Values do not include the 1/n! factor of 1/2.
 (esu units = statvolt**-1 cm**4 , SI units = C**3 m**3 J**-2)
 Beta(0;0,0):
               (au)            (10**-30 esu)      (10**-50 SI)
   || (z)    -0.237542D-01     -0.205218D-03     -0.761645D-04
   _|_(z)    -0.791806D-02     -0.684059D-04     -0.253882D-04
   x          0.122330D+04      0.105683D+02      0.392234D+01
   y         -0.208488D-01     -0.180117D-03     -0.668488D-04
   z         -0.118771D+00     -0.102609D-02     -0.380822D-03
   ||         0.244660D+03      0.211367D+01      0.784467D+00
   xxx        0.409658D+03      0.353913D+01      0.131351D+01
   xxy       -0.689544D-02     -0.595712D-04     -0.221093D-04
   yxy       -0.946039D+00     -0.817304D-02     -0.303334D-02
   yyy       -0.336661D-04     -0.290849D-06     -0.107946D-06
   xxz       -0.405621D-01     -0.350425D-03     -0.130057D-03
   yxz        0.258249D-04      0.223107D-06      0.828040D-07
   yyz       -0.526506D+01     -0.454860D-01     -0.168817D-01
   zxz       -0.946442D+00     -0.817652D-02     -0.303464D-02
   zyz       -0.204895D-04     -0.177014D-06     -0.656969D-07
   zzz        0.526603D+01      0.454944D-01      0.168848D-01

 ----------------------------------------------------------------------

 Dipole orientation:
     6         -0.00048064         -0.00005633         -1.65931652
     1         -1.01749280         -1.76225729         -1.50377770
     1         -1.01758841          1.76209455         -1.50385490
     1          2.03417629         -0.00000084         -1.50423357
    35          0.00084778          0.00011121          2.90351385
    17         -0.00097116         -0.00013131         -5.62581305

 Electric dipole moment (dipole orientation):
 (Debye = 10**-18 statcoulomb cm , SI units = C m)
                  (au)            (Debye)         (10**-30 SI)
   Tot        0.630641D+00      0.160293D+01      0.534680D+01
   x          0.000000D+00      0.000000D+00      0.000000D+00
   y          0.000000D+00      0.000000D+00      0.000000D+00
   z          0.630641D+00      0.160293D+01      0.534680D+01

 Dipole polarizability, Alpha (dipole orientation).
 (esu units = cm**3 , SI units = C**2 m**2 J**-1)
 Alpha(0;0):
               (au)            (10**-24 esu)      (10**-40 SI)
   iso        0.226783D+02      0.336057D+01      0.373914D+01
   aniso      0.504098D+02      0.746996D+01      0.831145D+01
   xx         0.587415D+01      0.870460D+00      0.968517D+00
   yx         0.000000D+00      0.000000D+00      0.000000D+00
   yy         0.587583D+01      0.870708D+00      0.968794D+00
   zx         0.110024D-01      0.163038D-02      0.181404D-02
   zy         0.145764D-02      0.215999D-03      0.240332D-03
   zz         0.562848D+02      0.834054D+01      0.928011D+01

 First dipole hyperpolarizability, Beta (dipole orientation).
 ||, _|_  parallel and perpendicular components, (z) with respect to z axis,
 vector components x,y,z.  Values do not include the 1/n! factor of 1/2.
 (esu units = statvolt**-1 cm**4 , SI units = C**3 m**3 J**-2)
 Beta(0;0,0):
               (au)            (10**-30 esu)      (10**-50 SI)
   || (z)    -0.244660D+03     -0.211367D+01     -0.784467D+00
   _|_(z)    -0.815532D+02     -0.704556D+00     -0.261489D+00
   x         -0.381951D+00     -0.329976D-02     -0.122467D-02
   y         -0.541262D-01     -0.467608D-03     -0.173548D-03
   z         -0.122330D+04     -0.105683D+02     -0.392234D+01
   ||         0.244660D+03      0.211367D+01      0.784467D+00
   xxx        0.526664D+01      0.454997D-01      0.168868D-01
   xxy        0.434872D-03      0.375695D-05      0.139436D-05
   yxy       -0.526486D+01     -0.454843D-01     -0.168810D-01
   yyy       -0.386010D-03     -0.333483D-05     -0.123769D-05
   xxz        0.945273D+00      0.816642D-02      0.303089D-02
   yxz        0.112309D-03      0.970259D-06      0.360102D-06
   yyz        0.947172D+00      0.818282D-02      0.303697D-02
   zxz       -0.129103D+00     -0.111535D-02     -0.413951D-03
   zyz       -0.180909D-01     -0.156291D-03     -0.580060D-04
   zzz       -0.409658D+03     -0.353913D+01     -0.131351D+01

 ----------------------------------------------------------------------
 Unable to Open any file for archive entry.
 1|1|UNPC-LAPTOP-PP56KN09|Freq|RHF|STO-3G|C1H3Br1Cl1(1-)|CHEMISTRY|01-D
 ec-2022|0||#N Geom=AllCheck Guess=TCheck SCRF=Check GenChk RHF/STO-3G 
 Freq||Title Card Required||-1,1|C,0.8780725232,-0.0000059231,-0.000065
 4344|H,0.7959060734,-0.9325101116,-0.5382881482|H,0.7958962073,0.93249
 65691,-0.538288015|H,0.7957745205,-0.0000080787,1.0766109636|Br,-1.536
 4734248,0.0000170549,0.0001180675|Cl,2.9770521004,0.0000114893,0.00012
 65666||Version=EM64W-G16RevC.01|State=1-A|HF=-3038.258964|RMSD=8.200e-
 010|RMSF=4.955e-005|ZeroPoint=0.0438064|Thermal=0.0480072|ETot=-3038.2
 109568|HTot=-3038.2100126|GTot=-3038.2434389|Dipole=-0.6306412,-0.0000
 171,-0.0001357|DipoleDeriv=4.6937683,-0.0000043,0.0000367,0.0000053,0.
 1557457,0.0000007,0.0001192,0.0000007,0.1558527,-0.3030222,0.0127904,0
 .0073826,0.0046761,0.0579333,0.0054393,0.0026759,0.0054202,0.0516615,-
 0.3030283,-0.0127908,0.0073838,-0.0046816,0.0579344,-0.0054402,0.00267
 71,-0.0054197,0.0516628,-0.3029865,0.0000009,-0.0147812,-0.0000017,0.0
 485451,0.0000005,-0.0054485,-0.0000009,0.0609904,-2.2701741,0.0000032,
 0.0000019,0.0000173,-0.7159377,-0.0000004,0.0001445,-0.0000004,-0.7159
 387,-2.5145572,0.0000007,-0.0000238,-0.0000153,-0.6042207,0.,-0.000168
 2,0.,-0.6042286|Polar=56.2847871,-0.0000865,5.8758301,-0.000157,-0.000
 0009,5.87415|PolarDeriv=-25.0240989,0.0002964,0.2477162,0.0017606,-0.0
 000031,0.2477405,-0.0003444,-0.0452183,0.0000054,-0.0000035,1.0035928,
 0.0000037,-0.001632,-0.0000035,1.0045499,-0.0450479,0.0000035,-1.00567
 25,1.2714457,-0.8817039,-0.0781834,-0.5091807,-0.0053644,-0.0719554,3.
 6776714,0.0480085,-3.983675,0.0007325,-1.4090681,-0.2990922,2.1216632,
 0.0007275,-0.518498,0.0471898,-1.8421308,-1.9534675,1.271491,0.8816175
 ,-0.0781804,-0.5091729,0.005364,-0.0719582,-3.6776651,0.0479976,3.9835
 856,-0.0007255,-1.4090556,0.2990924,2.1216424,-0.0007244,-0.5184816,0.
 0471777,1.8420958,-1.9534634,1.2716669,-0.0000378,-0.0688626,1.0174663
 ,0.0000024,-0.0813338,-0.0000092,0.0466256,-0.0000303,0.0000011,1.7812
 97,-0.000003,-4.2448244,0.000005,-0.0004011,0.0480335,-0.0000262,4.944
 6643,-14.5941496,-0.0000475,0.0447145,-0.000444,-0.0000003,0.0447356,0
 .0000772,-6.3222793,0.0000663,-0.0000038,0.032083,-0.0000005,0.0005329
 ,-0.0000038,0.0319358,-6.3222846,0.0000334,-0.0316625,35.8036449,-0.00
 01247,-0.0672044,-0.0004294,0.0000014,-0.0672287,0.0002701,6.224866,0.
 000048,-0.0000009,0.0011508,-0.0000004,0.002618,-0.000001,0.0008951,6.
 2249314,0.0000242,-0.0003984|HyperPolar=409.658461,-0.0068954,-0.94603
 95,-0.0000337,-0.0405621,0.0000258,-5.2650611,-0.9464424,-0.0000205,5.
 2660329|Quadrupole=-16.9289329,8.4646915,8.4642414,0.0000026,-0.000303
 7,-0.0000034|PG=C01 [X(C1H3Br1Cl1)]|NImag=1||-0.11806489,-0.00000335,0
 .93422947,-0.00005878,-0.00000177,0.93401900,0.00333430,-0.02909739,-0
 .01679427,0.06390771,-0.02972539,-0.39979036,-0.18488480,0.02979652,0.
 38998720,-0.01715191,-0.18487059,-0.18619082,0.01719732,0.19168723,0.1
 6854529,0.00333671,0.02910112,-0.01679642,-0.00257482,-0.00219348,0.00
 160568,0.06390874,0.02972955,-0.39979139,0.18488553,0.00219348,-0.0066
 0641,0.01806577,-0.02980010,0.38998784,-0.01715399,0.18487141,-0.18619
 124,0.00160577,-0.01806581,0.01552409,0.01719936,-0.19168778,0.1685453
 1,0.00333256,-0.00000004,0.03365085,-0.00257160,0.00029291,-0.00270402
 ,-0.00257180,-0.00029296,-0.00270409,0.06392382,0.00000023,-0.07949204
 ,0.00000074,0.00248883,0.00998808,-0.02766434,-0.00248884,0.00998810,0
 .02766405,0.00000002,0.05791476,0.03437439,0.00000064,-0.50647979,0.00
 109767,0.00848096,-0.00108491,0.00109770,-0.00848092,-0.00108473,-0.03
 445261,-0.00000059,0.50061767,0.07232605,-0.00000048,-0.00000458,-0.02
 985706,-0.00311681,-0.00180096,-0.02985933,0.00311692,-0.00180103,-0.0
 2987235,-0.00000002,0.00360068,0.07191467,-0.00000175,-0.02166439,0.00
 000016,0.01060226,0.00242648,0.00120091,-0.01060187,0.00242662,-0.0012
 0089,0.00000036,0.00034734,-0.00000003,0.00000056,0.01194138,-0.000017
 36,0.00000016,-0.02166582,0.00612422,0.00120027,0.00103950,0.00612440,
 -0.00120030,0.00103965,-0.01224265,0.00000001,0.00312093,0.00000800,-0
 .00000011,0.01194235,0.03573527,0.00000013,0.00000319,-0.03223852,0.00
 494624,0.00285388,-0.03223950,-0.00494689,0.00285399,-0.03224062,-0.00
 000023,-0.00571783,-0.05465199,0.00000044,0.00000339,0.11563536,0.0000
 0070,-0.03349129,0.00000014,-0.01598370,0.00399501,0.00158101,0.015983
 18,0.00399523,-0.00158098,-0.00000029,0.00125376,-0.00000006,-0.000000
 18,0.00452257,-0.00000004,0.00000030,0.01972473,0.00000765,0.00000014,
 -0.03349132,-0.00923071,0.00158215,0.00216686,-0.00923072,-0.00158231,
 0.00216693,0.01845252,0.00000013,0.00491083,-0.00000211,-0.00000004,0.
 00452340,0.00000338,-0.00000007,0.01972331||-0.00002533,-0.00000093,-0
 .00005717,0.00006504,-0.00002652,0.00001211,0.00006406,0.00002622,0.00
 001210,0.00005082,-0.00000016,0.00001931,0.00001007,0.00000086,0.00000
 883,-0.00016466,0.00000053,0.00000481|||@
 The archive entry for this job was punched.


 CLIMB THE MOUNTAINS AND GET THEIR GOOD TIDINGS.
 NATURE'S PEACE WILL FLOW INTO YOU AS SUNSHINE FLOWS INTO TREES.
 THE WINDS WILL BLOW THEIR OWN FRESHNESS INTO YOU, 
 AND CARES WILL DROP OFF LIKE AUTUMN LEAVES.

                                         -- JOHN MUIR
 Job cpu time:       0 days  0 hours  0 minutes  3.0 seconds.
 Elapsed time:       0 days  0 hours  0 minutes  1.9 seconds.
 File lengths (MBytes):  RWF=      6 Int=      0 D2E=      0 Chk=      2 Scr=      1
 Normal termination of Gaussian 16 at Thu Dec 01 11:34:54 2022.
